
                                 *****************
                                 * O   R   C   A *
                                 *****************

                                            #,                                       
                                            ###                                      
                                            ####                                     
                                            #####                                    
                                            ######                                   
                                           ########,                                 
                                     ,,################,,,,,                         
                               ,,#################################,,                 
                          ,,##########################################,,             
                       ,#########################################, ''#####,          
                    ,#############################################,,   '####,        
                  ,##################################################,,,,####,       
                ,###########''''           ''''###############################       
              ,#####''   ,,,,##########,,,,          '''####'''          '####       
            ,##' ,,,,###########################,,,                        '##       
           ' ,,###''''                  '''############,,,                           
         ,,##''                                '''############,,,,        ,,,,,,###''
      ,#''                                            '''#######################'''  
     '                                                          ''''####''''         
             ,#######,   #######,   ,#######,      ##                                
            ,#'     '#,  ##    ##  ,#'     '#,    #''#        ,####,   ,####,        
            ##       ##  ##   ,#'  ##            #'  '#       #'       #'  '#        
            ##       ##  #######   ##           ,######,      #####,   #    #        
            '#,     ,#'  ##    ##  '#,     ,#' ,#      #,     #,   #   #,  ,#        
             '#######'   ##     ##  '#######'  #'      '#     '####' # '####'        



                #########################################################
                #                        -***-                          #
                #          Department of theory and spectroscopy        #
                #                                                       #
                #                      Frank Neese                      #
                #                                                       #
                #     Directorship, Architecture, Infrastructure        #
                #                    SHARK, DRIVERS                     #
                #        Core code/Algorithms in most modules           #
                #                                                       #
                #        Max Planck Institute fuer Kohlenforschung      #
                #                Kaiser Wilhelm Platz 1                 #
                #                 D-45470 Muelheim/Ruhr                 #
                #                      Germany                          #
                #                                                       #
                #                  All rights reserved                  #
                #                        -***-                          #
                #########################################################


                         Program Version 6.0.0  -   RELEASE  -


 With contributions from (in alphabetic order):
   Daniel Aravena         : Magnetic Suceptibility
   Michael Atanasov       : Ab Initio Ligand Field Theory (pilot matlab implementation)
   Alexander A. Auer      : GIAO ZORA, VPT2 properties, NMR spectrum
   Ute Becker             : All parallelization in ORCA, NUMFREQ, NUMCALC
   Giovanni Bistoni       : ED, misc. LED, open-shell LED, HFLD
   Martin Brehm           : Molecular dynamics
   Dmytro Bykov           : pre 5.0 version of the SCF Hessian
   Marcos Casanova-Páez   : Triplet and SCS-CIS(D). UHF-(DLPNO)-IP/EA/STEOM-CCSD. UHF-CVS-IP/STEOM-CCSD
   Vijay G. Chilkuri      : MRCI spin determinant printing, contributions to CSF-ICE
   Pauline Colinet        : FMM embedding
   Dipayan Datta          : RHF DLPNO-CCSD density
   Achintya Kumar Dutta   : EOM-CC, STEOM-CC
   Nicolas Foglia         : Exact transition moments, OPA infrastructure, MCD improvements
   Dmitry Ganyushin       : Spin-Orbit,Spin-Spin,Magnetic field MRCI
   Miquel Garcia          : C-PCM and meta-GGA Hessian, CCSD/C-PCM, Gaussian charge scheme
   Tiago L. C. Gouveia    : GS-ROHF, GS-ROCIS
   Yang Guo               : DLPNO-NEVPT2, F12-NEVPT2, CIM, IAO-localization
   Andreas Hansen         : Spin unrestricted coupled pair/coupled cluster methods
   Ingolf Harden          : AUTO-CI MPn and infrastructure 
   Benjamin Helmich-Paris : MC-RPA, TRAH-(SCF,CASSCF), AVAS, COSX integrals, SCF dyn. polar.
   Lee Huntington         : MR-EOM, pCC
   Robert Izsak           : Overlap fitted RIJCOSX, COSX-SCS-MP3, EOM
   Riya Kayal             : Wick's Theorem for AUTO-CI, AUTO-CI UHF-CCSDT
   Emily Kempfer          : AUTO-CI, RHF CISDT and CCSDT
   Christian Kollmar      : KDIIS, OOCD, Brueckner-CCSD(T), CCSD density, CASPT2, CASPT2-K, improved NEVPT2
   Axel Koslowski         : Symmetry handling
   Simone Kossmann        : Meta GGA functionals, TD-DFT gradient, OOMP2, (MP2 Hessian; deprecated post 5.0)
   Lucas Lang             : DCDCAS
   Marvin Lechner         : AUTO-CI (C++ implementation), FIC-MRCC
   Spencer Leger          : CASSCF response
   Dagmar Lenk            : GEPOL surface, SMD, ORCA-2-JSON
   Dimitrios Liakos       : Extrapolation schemes; Compound Job, initial MDCI parallelization
   Dimitrios Manganas     : Further ROCIS development; embedding schemes. LFT, Crystal Embedding
   Dimitrios Pantazis     : SARC Basis sets
   Anastasios Papadopoulos: AUTO-CI, single reference methods and gradients
   Taras Petrenko         : pre 6.0 DFT Hessian and TD-DFT gradient, (ASA, deprecated), ECA, 1-Electron XAS/XES, NRVS
   Peter Pinski           : DLPNO-MP2, DLPNO-MP2 Gradient
   Christoph Reimann      : Effective Core Potentials
   Marius Retegan         : Local ZFS, SOC
   Christoph Riplinger    : Optimizer, TS searches, QM/MM, DLPNO-CCSD(T), (RO)-DLPNO pert. Triples
   Michael Roemelt        : Original ROCIS implementation
   Masaaki Saitow         : Open-shell DLPNO-CCSD energy and density
   Barbara Sandhoefer     : DKH picture change effects
   Kantharuban Sivalingam : CASSCF convergence/infrastructure, NEVPT2 and variants, FIC-MRCI
   Bernardo de Souza      : ESD, SOC TD-DFT
   Georgi Stoychev        : AutoAux, RI-MP2 NMR, DLPNO-MP2 response, X2C
   Van Anh Tran           : RI-MP2 g-tensors
   Willem Van den Heuvel  : Paramagnetic NMR
   Zikuan Wang            : NOTCH, Electric field optimization 
   Frank Wennmohs         : Technical directorship and infrastructure
   Hang Xu                : AUTO-CI-Response properties 


 We gratefully acknowledge several colleagues who have allowed us to
 interface, adapt or use parts of their codes:
   Stefan Grimme, W. Hujo, H. Kruse, P. Pracht,  : VdW corrections, initial TS optimization,
                  C. Bannwarth, S. Ehlert,         DFT functionals, gCP, sTDA/sTD-DF
                  L. Wittmann, M. Mueller
   Ed Valeev, F. Pavosevic, A. Kumar             : LibInt (2-el integral package), F12 methods
   Garnet Chan, S. Sharma, J. Yang, R. Olivares  : DMRG
   Ulf Ekstrom                                   : XCFun DFT Library
   Mihaly Kallay                                 : mrcc  (arbitrary order and MRCC methods)
   Frank Weinhold                                : gennbo (NPA and NBO analysis)
   Simon Mueller                                 : openCOSMO-RS
   Christopher J. Cramer and Donald G. Truhlar   : smd solvation model
   Lars Goerigk                                  : TD-DFT with DH, B97 family of functionals
   V. Asgeirsson, H. Jonsson                     : NEB implementation
   FAccTs GmbH                                   : IRC, NEB, NEB-TS, DLPNO-Multilevel, CI-OPT
                                                   MM, QMMM, 2- and 3-layer-ONIOM, Crystal-QMMM,
                                                   LR-CPCM, SF, NACMEs, symmetry and pop. for TD-DFT,
                                                   nearIR, NL-DFT gradient (VV10), updates on ESD,
                                                   ML-optimized integration grids, MBIS, APM,
                                                   GOAT, DOCKER, SOLVATOR, interface openCOSMO-RS
   S Lehtola, MJT Oliveira, MAL Marques          : LibXC Library
   Liviu Ungur et al                             : ANISO software


 Your calculation uses the libint2 library for the computation of 2-el integrals
 For citations please refer to: http://libint.valeyev.net

 Your ORCA version has been built with support for libXC version: 6.2.2
 For citations please refer to: https://libxc.gitlab.io

 This ORCA versions uses:
   CBLAS   interface :  Fast vector & matrix operations
   LAPACKE interface :  Fast linear algebra routines
   SCALAPACK package :  Parallel linear algebra routines
   Shared memory     :  Shared parallel matrices
   BLAS/LAPACK       :  OpenBLAS 0.3.27  USE64BITINT DYNAMIC_ARCH NO_AFFINITY SkylakeX SINGLE_THREADED
        Core in use  :  SkylakeX
   Copyright (c) 2011-2014, The OpenBLAS Project


Your calculation utilizes the geometrical counterpoise correction gCP
Please cite in your paper:
H.Kruse, S. Grimme J.Chem.Phys., 136, (2012), 154101 
   

Your calculation utilizes the atom-pairwise dispersion correction
based on EEQ partial charges (D4)


================================================================================

----- Orbital basis set information -----
Your calculation utilizes the basis: def2-SV(P)
   F. Weigend and R. Ahlrichs, Phys. Chem. Chem. Phys. 7, 3297 (2005).

----- AuxJ basis set information -----
Your calculation utilizes the auxiliary basis: def2/J
   F. Weigend, Phys. Chem. Chem. Phys. 8, 1057 (2006).

================================================================================
                                        WARNINGS
                       Please study these warnings very carefully!
================================================================================


================================================================================
                                       INPUT FILE
================================================================================
NAME = sp.inp
|  1> ! pbe def2-sv(p) def2/J RI DEFGRID1 loosescf d4 GCP(DFT/SV(P)) printgap
|  2> %output
|  3>     printlevel normal
|  4> end
|  5> * xyz 0 1
|  6> C -0.6778956479 -1.2404158928 8.46468e-05
|  7> O -1.2573038162 -2.3000808037 -4.86799e-05
|  8> N -1.3338712379 -0.0312563489 -1.02968e-05
|  9> C -0.7352276291 1.2072221309 0.0001687914
| 10> O -1.3633920122 2.2387664127 -0.0001267524
| 11> N 0.6399092672 1.1708828161 9.67162e-05
| 12> C 1.413190935 0.0332399165 -3.45459e-05
| 13> O 2.6206336322 0.0610757509 -4.7644e-05
| 14> N 0.6939870393 -1.1394271926 4.70992e-05
| 15> H -2.3495447423 -0.0551840836 -0.0001728119
| 16> H 1.1266982009 2.0626372515 -0.0001811361
| 17> H 1.2226792239 -2.0069843207 -0.0005688478
| 18> *
| 19> 
| 20>                          ****END OF INPUT****
================================================================================

                       ****************************
                       * Single Point Calculation *
                       ****************************

---------------------------------
CARTESIAN COORDINATES (ANGSTROEM)
---------------------------------
  C     -0.677896   -1.240416    0.000085
  O     -1.257304   -2.300081   -0.000049
  N     -1.333871   -0.031256   -0.000010
  C     -0.735228    1.207222    0.000169
  O     -1.363392    2.238766   -0.000127
  N      0.639909    1.170883    0.000097
  C      1.413191    0.033240   -0.000035
  O      2.620634    0.061076   -0.000048
  N      0.693987   -1.139427    0.000047
  H     -2.349545   -0.055184   -0.000173
  H      1.126698    2.062637   -0.000181
  H      1.222679   -2.006984   -0.000569

----------------------------
CARTESIAN COORDINATES (A.U.)
----------------------------
  NO LB      ZA    FRAG     MASS         X           Y           Z
   0 C     6.0000    0    12.011   -1.281037   -2.344046    0.000160
   1 O     8.0000    0    15.999   -2.375960   -4.346523   -0.000092
   2 N     7.0000    0    14.007   -2.520651   -0.059066   -0.000019
   3 C     6.0000    0    12.011   -1.389379    2.281319    0.000319
   4 O     8.0000    0    15.999   -2.576438    4.230655   -0.000240
   5 N     7.0000    0    14.007    1.209253    2.212648    0.000183
   6 C     6.0000    0    12.011    2.670544    0.062814   -0.000065
   7 O     8.0000    0    15.999    4.952280    0.115416   -0.000090
   8 N     7.0000    0    14.007    1.311445   -2.153205    0.000089
   9 H     1.0000    0     1.008   -4.439996   -0.104283   -0.000327
  10 H     1.0000    0     1.008    2.129151    3.897820   -0.000342
  11 H     1.0000    0     1.008    2.310529   -3.792651   -0.001075

--------------------------------
INTERNAL COORDINATES (ANGSTROEM)
--------------------------------
 C      0   0   0     0.000000000000     0.00000000     0.00000000
 O      1   0   0     1.207726610894     0.00000000     0.00000000
 N      1   2   0     1.375634684898   122.85078137     0.00000000
 C      3   1   2     1.375573752060   125.72218899   179.99805062
 O      4   3   1     1.207755846542   122.86270943   179.98872487
 N      4   3   1     1.375616965060   114.28399500     0.00000000
 C      6   4   3     1.375571125749   125.71857897     0.00000000
 O      7   6   4     1.207763511980   122.88419809   180.00256107
 N      1   2   3     1.375594717356   122.87927981   180.01474231
 H      3   1   2     1.015955328959   117.13051829     0.00000000
 H      6   4   3     1.015967281083   117.11540161   179.97439478
 H      9   1   2     1.015958255031   117.14813071     0.02969312

---------------------------
INTERNAL COORDINATES (A.U.)
---------------------------
 C      0   0   0     0.000000000000     0.00000000     0.00000000
 O      1   0   0     2.282272539239     0.00000000     0.00000000
 N      1   2   0     2.599572814780   122.85078137     0.00000000
 C      3   1   2     2.599457668405   125.72218899   179.99805062
 O      4   3   1     2.282327786606   122.86270943   179.98872487
 N      4   3   1     2.599539329139   114.28399500     0.00000000
 C      6   4   3     2.599452705396   125.71857897     0.00000000
 O      7   6   4     2.282342272185   122.88419809   180.00256107
 N      1   2   3     2.599497287071   122.87927981   180.01474231
 H      3   1   2     1.919877336029   117.13051829     0.00000000
 H      6   4   3     1.919899922271   117.11540161   179.97439478
 H      9   1   2     1.919882865504   117.14813071     0.02969312

---------------------
BASIS SET INFORMATION
---------------------
There are 4 groups of distinct atoms

 Group   1 Type C   : 7s4p1d contracted to 3s2p1d pattern {511/31/1}
 Group   2 Type O   : 7s4p1d contracted to 3s2p1d pattern {511/31/1}
 Group   3 Type N   : 7s4p1d contracted to 3s2p1d pattern {511/31/1}
 Group   4 Type H   : 4s contracted to 2s pattern {31}

Atom   0C    basis set group =>   1
Atom   1O    basis set group =>   2
Atom   2N    basis set group =>   3
Atom   3C    basis set group =>   1
Atom   4O    basis set group =>   2
Atom   5N    basis set group =>   3
Atom   6C    basis set group =>   1
Atom   7O    basis set group =>   2
Atom   8N    basis set group =>   3
Atom   9H    basis set group =>   4
Atom  10H    basis set group =>   4
Atom  11H    basis set group =>   4
---------------------------------
AUXILIARY/J BASIS SET INFORMATION
---------------------------------
There are 4 groups of distinct atoms

 Group   1 Type C   : 12s5p4d2f1g contracted to 6s4p3d1f1g pattern {711111/2111/211/2/1}
 Group   2 Type O   : 12s5p4d2f1g contracted to 6s4p3d1f1g pattern {711111/2111/211/2/1}
 Group   3 Type N   : 12s5p4d2f1g contracted to 6s4p3d1f1g pattern {711111/2111/211/2/1}
 Group   4 Type H   : 5s2p1d contracted to 3s1p1d pattern {311/2/1}

Atom   0C    basis set group =>   1
Atom   1O    basis set group =>   2
Atom   2N    basis set group =>   3
Atom   3C    basis set group =>   1
Atom   4O    basis set group =>   2
Atom   5N    basis set group =>   3
Atom   6C    basis set group =>   1
Atom   7O    basis set group =>   2
Atom   8N    basis set group =>   3
Atom   9H    basis set group =>   4
Atom  10H    basis set group =>   4
Atom  11H    basis set group =>   4
------------------------------------------------------------------------------
                             ORCA STARTUP CALCULATIONS
                           -- RI-GTO INTEGRALS CHOSEN --
------------------------------------------------------------------------------
------------------------------------------------------------------------------
                   ___                                                        
                  /   \      - P O W E R E D   B Y -                         
                 /     \                                                     
                 |  |  |   _    _      __       _____    __    __             
                 |  |  |  | |  | |    /  \     |  _  \  |  |  /  |          
                  \  \/   | |  | |   /    \    | | | |  |  | /  /          
                 / \  \   | |__| |  /  /\  \   | |_| |  |  |/  /          
                |  |  |   |  __  | /  /__\  \  |    /   |      \           
                |  |  |   | |  | | |   __   |  |    \   |  |\   \          
                \     /   | |  | | |  |  |  |  | |\  \  |  | \   \       
                 \___/    |_|  |_| |__|  |__|  |_| \__\ |__|  \__/        
                                                                              
                      - O R C A' S   B I G   F R I E N D -                    
                                      &                                       
                       - I N T E G R A L  F E E D E R -                       
                                                                              
 v1 FN, 2020, v2 2021, v3 2022-2024                                           
------------------------------------------------------------------------------


----------------------
SHARK INTEGRAL PACKAGE
----------------------

Number of atoms                             ...     12
Number of basis functions                   ...    132
Number of shells                            ...     60
Maximum angular momentum                    ...      2
Integral batch strategy                     ... SHARK/LIBINT Hybrid
RI-J (if used) integral strategy            ... SPLIT-RIJ (Revised 2003 algorithm where possible)
Printlevel                                  ...      1
Contraction scheme used                     ... SEGMENTED contraction
Prescreening option                         ... SCHWARTZ
   Thresh                                   ... 1.000e-09
   Tcut                                     ... 1.000e-10
   Tpresel                                  ... 1.000e-10 
Coulomb Range Separation                    ... NOT USED
Exchange Range Separation                   ... NOT USED
Multipole approximations                    ... NOT USED
Finite Nucleus Model                        ... NOT USED
CABS basis                                  ... NOT available
Auxiliary Coulomb fitting basis             ... AVAILABLE
   # of basis functions in Aux-J            ...    474
   # of shells in Aux-J                     ...    150
   Maximum angular momentum in Aux-J        ...      4
Auxiliary J/K fitting basis                 ... NOT available
Auxiliary Correlation fitting basis         ... NOT available
Auxiliary 'external' fitting basis          ... NOT available

Checking pre-screening integrals            ... done (  0.0 sec) Dimension = 60
Check shell pair data                       ... done (  0.0 sec)
Shell pair information
Shell pair cut-off parameter TPreSel        ...   1.0e-10
Total number of shell pairs                 ...      1830
Shell pairs after pre-screening             ...      1698
Total number of primitive shell pairs       ...      7386
Primitive shell pairs kept                  ...      4932
          la=0 lb=0:    507 shell pairs
          la=1 lb=0:    567 shell pairs
          la=1 lb=1:    168 shell pairs
          la=2 lb=0:    264 shell pairs
          la=2 lb=1:    153 shell pairs
          la=2 lb=2:     39 shell pairs

Calculating one electron integrals          ... done (  0.0 sec)
Calculating RI/J V-Matrix + Cholesky decomp.... done (  0.1 sec)
Calculating Nuclear repulsion               ... done (  0.0 sec) ENN=    450.217156391319 Eh

Diagonalization of the overlap matrix:
Smallest eigenvalue                        ... 4.121e-03
Time for diagonalization                   ...    0.002 sec
Threshold for overlap eigenvalues          ... 1.000e-07
Number of eigenvalues below threshold      ... 0
Time for construction of square roots      ...    0.018 sec
Total time needed                          ...    0.026 sec

-------------------
DFT GRID GENERATION
-------------------

General Integration Accuracy     IntAcc      ... 4.159
Radial Grid Type                 RadialGrid  ... OptM3 with GC (2021)
Angular Grid (max. ang.)         AngularGrid ... 3 (Lebedev-194)
Angular grid pruning method      GridPruning ... 4 (adaptive)
Weight generation scheme         WeightScheme... mBecke (2022)
Basis function cutoff            BFCut       ... 1.0000e-10
Integration weight cutoff        WCut        ... 1.0000e-14
Partially contracted basis set               ... off
Rotationally invariant grid construction     ... off
Angular grids for H and He will be reduced by one unit

Total number of grid points                  ...    33909
Total number of batches                      ...      537
Average number of points per batch           ...       63
Average number of grid points per atom       ...     2826
Initializing property integral containers    ... done (  0.0 sec)

SHARK setup successfully completed in   0.5 seconds

Maximum memory used throughout the entire STARTUP-calculation: 17.0 MB
-------------------------------------------------------------------------------
                                 ORCA GUESS
                   Start orbitals & Density for SCF / CASSCF
-------------------------------------------------------------------------------

------------
SCF SETTINGS
------------
Hamiltonian:
 Density Functional     Method          .... DFT(GTOs)
 Exchange Functional    Exchange        .... PBE
   PBE kappa parameter   XKappa         ....  0.804000
   PBE mue parameter    XMuePBE         ....  0.219520
 Correlation Functional Correlation     .... PBE
   PBE beta parameter  CBetaPBE         ....  0.066725
 LDA part of GGA corr.  LDAOpt          .... PW91-LDA
 Gradients option       PostSCFGGA      .... off
   NL short-range parameter             ....  6.400000
 RI-approximation to the Coulomb term is turned on
   Number of AuxJ basis functions       .... 474


General Settings:
 Integral files         IntName         .... sp
 Hartree-Fock type      HFTyp           .... RHF
 Total Charge           Charge          ....    0
 Multiplicity           Mult            ....    1
 Number of Electrons    NEL             ....   66
 Basis Dimension        Dim             ....  132
 Nuclear Repulsion      ENuc            ....    450.2171563913 Eh

Convergence Acceleration:
 AO-DIIS                CNVDIIS         .... on
   Start iteration      DIISMaxIt       ....    12
   Startup error        DIISStart       ....  0.200000
   # of expansion vecs  DIISMaxEq       ....     5
   Bias factor          DIISBfac        ....   1.050
   Max. coefficient     DIISMaxC        ....  10.000
 MO-DIIS                CNVKDIIS        .... off
 Trust-Rad. Augm. Hess. CNVTRAH         .... auto
   Auto Start mean grad. ratio tolernc. ....  1.125000
   Auto Start start iteration           ....    50
   Auto Start num. interpolation iter.  ....    10
   Max. Number of Micro iterations      ....    24
   Max. Number of Macro iterations      .... Maxiter - #DIIS iter
   Number of Davidson start vectors     ....     2
   Converg. threshold    (grad. norm)   ....   1.000e-04
   Grad. Scal. Fac. for Micro threshold ....   0.100
   Minimum threshold for Micro iter.    ....   1.000e-02
   NR start threshold (gradient norm)   ....   1.000e-04
   Initial trust radius                 ....   0.400
   Minimum AH scaling param. (alpha)    ....   1.000
   Maximum AH scaling param. (alpha)    .... 1000.000
   Quad. conv. algorithm                .... NR
   White noise on init. David. guess    .... on
   Maximum white noise                  ....   0.010
   Pseudo random numbers                .... off
   Inactive MOs                         .... canonical
   Orbital update algorithm             .... Taylor
   Preconditioner                       .... Diag
   Full preconditioner red. dimension   ....   250
 SOSCF                  CNVSOSCF        .... on
   Start iteration      SOSCFMaxIt      ....   150
   Startup grad/error   SOSCFStart      ....  0.003300
   Hessian update       SOSCFHessUp     .... L-BFGS
 Level Shifting         CNVShift        .... on
   Level shift para.    LevelShift      ....    0.2500
   Turn off err/grad.   ShiftErr        ....    0.0010
 Zerner damping         CNVZerner       .... off
 Static damping         CNVDamp         .... on
   Fraction old density DampFac         ....    0.7000
   Max. Damping (<1)    DampMax         ....    0.9800
   Min. Damping (>=0)   DampMin         ....    0.0000
   Turn off err/grad.   DampErr         ....    0.1000

SCF Procedure:
 Maximum # iterations   MaxIter         ....   125
 SCF integral mode      SCFMode         .... Direct
   Integral package                     .... SHARK and LIBINT hybrid scheme
 Reset frequency        DirectResetFreq ....    20
 Integral Threshold     Thresh          ....  1.000e-09 Eh
 Primitive CutOff       TCut            ....  1.000e-10 Eh

Convergence Tolerance:
 Convergence Check Mode ConvCheckMode   .... Total+1el-Energy
 Convergence forced     ConvForced      .... 0
 Energy Change          TolE            ....  1.000e-05 Eh
 1-El. energy change                    ....  1.000e-02 Eh
 Orbital Gradient       TolG            ....  1.000e-04
 Orbital Rotation angle TolX            ....  1.000e-04
 DIIS Error             TolErr          ....  5.000e-04

------------------------------
INITIAL GUESS: MODEL POTENTIAL
------------------------------
Loading Hartree-Fock densities                     ... done
Calculating cut-offs                               ... done
Initializing the effective Hamiltonian             ... done
Setting up the integral package (SHARK)            ... done
Starting the Coulomb interaction                   ... done (   0.1 sec)
Making the grid                                    ... done (   0.1 sec)
Mapping shells                                     ... done
Starting the XC term evaluation                    ... done (   0.1 sec)
  promolecular density results
     # of electrons  =     65.996841704
     EX              =    -60.403659762
     EC              =     -2.263477981
     EX+EC           =    -62.667137743
Transforming the Hamiltonian                       ... done (   0.0 sec)
Diagonalizing the Hamiltonian                      ... done (   0.0 sec)
Back transforming the eigenvectors                 ... done (   0.0 sec)
Now organizing SCF variables                       ... done
                      ------------------
                      INITIAL GUESS DONE (   0.4 sec)
                      ------------------
             **** ENERGY FILE WAS UPDATED (sp.en.tmp) ****
Finished Guess after   0.6 sec
Maximum memory used throughout the entire GUESS-calculation: 13.5 MB

-------------------------------------------------------------------------------------------
                                      ORCA LEAN-SCF
                              memory conserving SCF solver
-------------------------------------------------------------------------------------------

----------------------------------------D-I-I-S--------------------------------------------
Iteration    Energy (Eh)           Delta-E    RMSDP     MaxDP     DIISErr   Damp  Time(sec)
-------------------------------------------------------------------------------------------
               ***  Starting incremental Fock matrix formation  ***
    1    -504.8748550327835005     0.00e+00  8.58e-03  2.03e-01  2.60e-01  0.700   0.6
    2    -505.0585589828427260    -1.84e-01  4.33e-03  1.02e-01  7.72e-02  0.700   0.6
                               ***Turning on AO-DIIS***
    3    -505.1002766499362338    -4.17e-02  1.19e-03  1.66e-02  4.03e-02  0.700   0.6
    4    -505.1364351499814234    -3.62e-02  1.76e-03  2.68e-02  3.23e-02  0.000   0.6
    5    -505.2242108362448221    -8.78e-02  6.42e-04  1.27e-02  1.55e-02  0.000   0.6
    6    -505.2252537538162755    -1.04e-03  1.49e-04  1.90e-03  3.53e-03  0.000   0.6
                              *** Initializing SOSCF ***
---------------------------------------S-O-S-C-F--------------------------------------
Iteration    Energy (Eh)           Delta-E    RMSDP     MaxDP     MaxGrad    Time(sec)
--------------------------------------------------------------------------------------
    7    -505.2253201554146358    -6.64e-05  5.77e-05  8.24e-04  8.46e-04     0.6
               *** Restarting incremental Fock matrix formation ***
    8    -505.2253262773422762    -6.12e-06  5.92e-05  7.59e-04  3.04e-04     0.6
    9    -505.2253222334490488     4.04e-06  3.92e-05  6.87e-04  6.37e-04     0.6
                 **** Energy Check signals convergence ****

               *****************************************************
               *                     SUCCESS                       *
               *           SCF CONVERGED AFTER   9 CYCLES          *
               *****************************************************

             **** ENERGY FILE WAS UPDATED (sp.en.tmp) ****

----------------
TOTAL SCF ENERGY
----------------

Total Energy       :       -505.22532223344905 Eh          -13747.87995 eV

Components:
Nuclear Repulsion  :        450.21715639131861 Eh           12251.03166 eV
Electronic Energy  :       -955.44247862476766 Eh          -25998.91160 eV
One Electron Energy:      -1582.06118120175847 Eh          -43050.07336 eV
Two Electron Energy:        626.61870257699081 Eh           17051.16176 eV

Virial components:
Potential Energy   :      -1006.85492897816812 Eh          -27397.91550 eV
Kinetic Energy     :        501.62960674471901 Eh           13650.03555 eV
Virial Ratio       :          2.00716806871122

DFT components:
N(Alpha)           :       33.000142719675 electrons
N(Beta)            :       33.000142719675 electrons
N(Total)           :       66.000285439349 electrons
E(X)               :      -61.166221493805 Eh       
E(C)               :       -2.281789887011 Eh       
E(XC)              :      -63.448011380816 Eh       

---------------
SCF CONVERGENCE
---------------

  Last Energy change         ...   -4.0439e-06  Tolerance :   1.0000e-05
  Last MAX-Density change    ...    6.8684e-04  Tolerance :   1.0000e-03
  Last RMS-Density change    ...    3.9230e-05  Tolerance :   1.0000e-04
  Last DIIS Error            ...    8.4577e-04  Tolerance :   5.0000e-04
  Last Orbital Gradient      ...    6.3678e-04  Tolerance :   1.0000e-04
  Last Orbital Rotation      ...    5.9816e-04  Tolerance :   1.0000e-04


----------------
ORBITAL ENERGIES
----------------

  NO   OCC          E(Eh)            E(eV) 
   0   2.0000     -18.756924      -510.4019 
   1   2.0000     -18.756918      -510.4017 
   2   2.0000     -18.756879      -510.4006 
   3   2.0000     -14.067406      -382.7936 
   4   2.0000     -14.067391      -382.7932 
   5   2.0000     -14.067364      -382.7924 
   6   2.0000     -10.054271      -273.5906 
   7   2.0000     -10.054262      -273.5904 
   8   2.0000     -10.054249      -273.5900 
   9   2.0000      -1.023050       -27.8386 
  10   2.0000      -0.982411       -26.7328 
  11   2.0000      -0.982403       -26.7325 
  12   2.0000      -0.905892       -24.6506 
  13   2.0000      -0.862495       -23.4697 
  14   2.0000      -0.862458       -23.4687 
  15   2.0000      -0.642602       -17.4861 
  16   2.0000      -0.642583       -17.4856 
  17   2.0000      -0.604465       -16.4483 
  18   2.0000      -0.578018       -15.7287 
  19   2.0000      -0.481099       -13.0914 
  20   2.0000      -0.481076       -13.0907 
  21   2.0000      -0.475978       -12.9520 
  22   2.0000      -0.409419       -11.1408 
  23   2.0000      -0.401622       -10.9287 
  24   2.0000      -0.401612       -10.9284 
  25   2.0000      -0.392587       -10.6828 
  26   2.0000      -0.392580       -10.6826 
  27   2.0000      -0.275724        -7.5028 
  28   2.0000      -0.275699        -7.5022 
  29   2.0000      -0.270989        -7.3740 
  30   2.0000      -0.270971        -7.3735 
  31   2.0000      -0.269326        -7.3287 
  32   2.0000      -0.234639        -6.3848 
  33   0.0000      -0.047375        -1.2891 
  34   0.0000      -0.047360        -1.2887 
  35   0.0000       0.013170         0.3584 
  36   0.0000       0.044835         1.2200 
  37   0.0000       0.044857         1.2206 
  38   0.0000       0.059802         1.6273 
  39   0.0000       0.109025         2.9667 
  40   0.0000       0.165946         4.5156 
  41   0.0000       0.165968         4.5162 
  42   0.0000       0.193364         5.2617 
  43   0.0000       0.193405         5.2628 
*Only the first 10 virtual orbitals were printed.

                    ********************************
                    * MULLIKEN POPULATION ANALYSIS *
                    ********************************

-----------------------
MULLIKEN ATOMIC CHARGES
-----------------------
   0 C :    0.147682
   1 O :   -0.162218
   2 N :   -0.253047
   3 C :    0.147660
   4 O :   -0.162277
   5 N :   -0.252906
   6 C :    0.147525
   7 O :   -0.162217
   8 N :   -0.253032
   9 H :    0.267614
  10 H :    0.267606
  11 H :    0.267610
Sum of atomic charges:   -0.0000000

--------------------------------
MULLIKEN REDUCED ORBITAL CHARGES
--------------------------------
  0 C s       :     2.963807  s :     2.963807
      pz      :     0.896727  p :     2.753491
      px      :     0.948499
      py      :     0.908265
      dz2     :     0.006928  d :     0.135020
      dxz     :     0.017944
      dyz     :     0.025711
      dx2y2   :     0.049141
      dxy     :     0.035296

  1 O s       :     3.717848  s :     3.717848
      pz      :     1.419211  p :     4.426026
      px      :     1.616368
      py      :     1.390447
      dz2     :     0.002081  d :     0.018344
      dxz     :     0.001368
      dyz     :     0.004472
      dx2y2   :     0.004734
      dxy     :     0.005689

  2 N s       :     3.403738  s :     3.403738
      pz      :     1.629854  p :     3.829428
      px      :     1.136701
      py      :     1.062873
      dz2     :     0.002968  d :     0.019881
      dxz     :     0.001012
      dyz     :     0.003683
      dx2y2   :     0.007638
      dxy     :     0.004581

  3 C s       :     2.963753  s :     2.963753
      pz      :     0.896710  p :     2.753568
      px      :     0.945444
      py      :     0.911415
      dz2     :     0.006928  d :     0.135019
      dxz     :     0.018521
      dyz     :     0.025133
      dx2y2   :     0.051829
      dxy     :     0.032608

  4 O s       :     3.717894  s :     3.717894
      pz      :     1.419230  p :     4.426042
      px      :     1.599503
      py      :     1.407309
      dz2     :     0.002081  d :     0.018342
      dxz     :     0.001600
      dyz     :     0.004239
      dx2y2   :     0.004549
      dxy     :     0.005873

  5 N s       :     3.403714  s :     3.403714
      pz      :     1.629855  p :     3.829310
      px      :     1.079842
      py      :     1.119613
      dz2     :     0.002968  d :     0.019882
      dxz     :     0.003070
      dyz     :     0.001626
      dx2y2   :     0.005473
      dxy     :     0.006745

  6 C s       :     2.963827  s :     2.963827
      pz      :     0.896757  p :     2.753635
      px      :     0.891018
      py      :     0.965859
      dz2     :     0.006928  d :     0.135013
      dxz     :     0.029019
      dyz     :     0.014634
      dx2y2   :     0.025686
      dxy     :     0.058746

  7 O s       :     3.717893  s :     3.717893
      pz      :     1.419238  p :     4.425982
      px      :     1.294184
      py      :     1.712560
      dz2     :     0.002081  d :     0.018342
      dxz     :     0.005792
      dyz     :     0.000046
      dx2y2   :     0.006350
      dxy     :     0.004072

  8 N s       :     3.403812  s :     3.403812
      pz      :     1.629854  p :     3.829340
      px      :     1.082701
      py      :     1.116785
      dz2     :     0.002968  d :     0.019880
      dxz     :     0.002961
      dyz     :     0.001734
      dx2y2   :     0.005218
      dxy     :     0.006999

  9 H s       :     0.732386  s :     0.732386

 10 H s       :     0.732394  s :     0.732394

 11 H s       :     0.732390  s :     0.732390


------------------------
MULLIKEN OVERLAP CHARGES
------------------------
B(  0-C ,  1-O ) :   1.5889 B(  0-C ,  2-N ) :   0.5047 B(  0-C ,  8-N ) :   0.5042 
B(  1-O ,  2-N ) :  -0.2004 B(  1-O ,  8-N ) :  -0.2002 B(  2-N ,  3-C ) :   0.5047 
B(  2-N ,  4-O ) :  -0.2004 B(  2-N ,  5-N ) :  -0.2572 B(  2-N ,  8-N ) :  -0.2573 
B(  2-N ,  9-H ) :   0.5556 B(  3-C ,  4-O ) :   1.5888 B(  3-C ,  5-N ) :   0.5046 
B(  4-O ,  5-N ) :  -0.2003 B(  5-N ,  6-C ) :   0.5042 B(  5-N ,  7-O ) :  -0.2002 
B(  5-N ,  8-N ) :  -0.2574 B(  5-N , 10-H ) :   0.5554 B(  6-C ,  7-O ) :   1.5888 
B(  6-C ,  8-N ) :   0.5045 B(  7-O ,  8-N ) :  -0.2005 B(  8-N , 11-H ) :   0.5554 



                     *******************************
                     * LOEWDIN POPULATION ANALYSIS *
                     *******************************

----------------------
LOEWDIN ATOMIC CHARGES
----------------------
   0 C :    0.033525
   1 O :   -0.170034
   2 N :   -0.131400
   3 C :    0.033545
   4 O :   -0.170076
   5 N :   -0.131389
   6 C :    0.033525
   7 O :   -0.170064
   8 N :   -0.131425
   9 H :    0.267929
  10 H :    0.267933
  11 H :    0.267929

-------------------------------
LOEWDIN REDUCED ORBITAL CHARGES
-------------------------------
  0 C s       :     2.799719  s :     2.799719
      pz      :     0.891936  p :     2.854167
      px      :     0.966752
      py      :     0.995478
      dz2     :     0.016570  d :     0.312588
      dxz     :     0.036419
      dyz     :     0.050270
      dx2y2   :     0.121202
      dxy     :     0.088127

  1 O s       :     3.544388  s :     3.544388
      pz      :     1.422546  p :     4.593589
      px      :     1.666917
      py      :     1.504125
      dz2     :     0.004559  d :     0.032057
      dxz     :     0.001766
      dyz     :     0.005794
      dx2y2   :     0.008358
      dxy     :     0.011580

  2 N s       :     3.116346  s :     3.116346
      pz      :     1.582258  p :     3.960960
      px      :     1.207194
      py      :     1.171508
      dz2     :     0.006431  d :     0.054094
      dxz     :     0.001609
      dyz     :     0.007386
      dx2y2   :     0.022699
      dxy     :     0.015969

  3 C s       :     2.799714  s :     2.799714
      pz      :     0.891928  p :     2.854169
      px      :     0.968870
      py      :     0.993371
      dz2     :     0.016570  d :     0.312572
      dxz     :     0.037447
      dyz     :     0.049240
      dx2y2   :     0.127628
      dxy     :     0.081687

  4 O s       :     3.544411  s :     3.544411
      pz      :     1.422563  p :     4.593611
      px      :     1.654785
      py      :     1.516263
      dz2     :     0.004559  d :     0.032054
      dxz     :     0.002067
      dyz     :     0.005493
      dx2y2   :     0.007735
      dxy     :     0.012201

  5 N s       :     3.116341  s :     3.116341
      pz      :     1.582254  p :     3.960953
      px      :     1.179713
      py      :     1.198986
      dz2     :     0.006431  d :     0.054094
      dxz     :     0.006059
      dyz     :     0.002936
      dx2y2   :     0.017933
      dxy     :     0.020735

  6 C s       :     2.799725  s :     2.799725
      pz      :     0.891954  p :     2.854177
      px      :     1.007702
      py      :     0.954521
      dz2     :     0.016570  d :     0.312573
      dxz     :     0.056168
      dyz     :     0.030517
      dx2y2   :     0.065144
      dxy     :     0.144173

  7 O s       :     3.544420  s :     3.544420
      pz      :     1.422573  p :     4.593590
      px      :     1.434780
      py      :     1.736237
      dz2     :     0.004559  d :     0.032054
      dxz     :     0.007508
      dyz     :     0.000052
      dx2y2   :     0.013809
      dxy     :     0.006126

  8 N s       :     3.116368  s :     3.116368
      pz      :     1.582264  p :     3.960966
      px      :     1.181144
      py      :     1.197558
      dz2     :     0.006432  d :     0.054091
      dxz     :     0.005824
      dyz     :     0.003170
      dx2y2   :     0.017372
      dxy     :     0.021293

  9 H s       :     0.732071  s :     0.732071

 10 H s       :     0.732067  s :     0.732067

 11 H s       :     0.732071  s :     0.732071


---------------------------------
LOEWDIN BOND ORDERS (THRESH 0.050000)
---------------------------------
B(  0-C ,  1-O ) :   2.1880 B(  0-C ,  2-N ) :   1.2363 B(  0-C ,  3-C ) :   0.0724 
B(  0-C ,  6-C ) :   0.0724 B(  0-C ,  8-N ) :   1.2365 B(  1-O ,  2-N ) :   0.1613 
B(  1-O ,  8-N ) :   0.1613 B(  2-N ,  3-C ) :   1.2365 B(  2-N ,  4-O ) :   0.1613 
B(  2-N ,  5-N ) :   0.0742 B(  2-N ,  8-N ) :   0.0742 B(  2-N ,  9-H ) :   0.8290 
B(  3-C ,  4-O ) :   2.1879 B(  3-C ,  5-N ) :   1.2364 B(  3-C ,  6-C ) :   0.0724 
B(  4-O ,  5-N ) :   0.1613 B(  5-N ,  6-C ) :   1.2365 B(  5-N ,  7-O ) :   0.1613 
B(  5-N ,  8-N ) :   0.0742 B(  5-N , 10-H ) :   0.8290 B(  6-C ,  7-O ) :   2.1880 
B(  6-C ,  8-N ) :   1.2363 B(  7-O ,  8-N ) :   0.1613 B(  8-N , 11-H ) :   0.8290 


------------------------------------------
LOEWDIN REDUCED ORBITAL POPULATIONS PER MO
-------------------------------------------
THRESHOLD FOR PRINTING IS 0.1%%
                      0         1         2         3         4         5   
                 -18.75692 -18.75692 -18.75688 -14.06741 -14.06739 -14.06736
                   2.00000   2.00000   2.00000   2.00000   2.00000   2.00000
                  --------  --------  --------  --------  --------  --------
 1 O  s              74.6       0.5      24.8       0.0       0.0       0.0
 2 N  s               0.0       0.0       0.0      14.9      70.1      14.7
 4 O  s               9.3      51.4      39.3       0.0       0.0       0.0
 5 N  s               0.0       0.0       0.0      83.3       8.6       7.8
 7 O  s              16.0      48.1      35.8       0.0       0.0       0.0
 8 N  s               0.0       0.0       0.0       1.5      21.1      77.2

                      6         7         8         9        10        11   
                 -10.05427 -10.05426 -10.05425  -1.02305  -0.98241  -0.98240
                   2.00000   2.00000   2.00000   2.00000   2.00000   2.00000
                  --------  --------  --------  --------  --------  --------
 0 C  s               5.7      46.8      46.8      11.8      13.6       1.7
 0 C  px              0.0       0.0       0.0       0.0       0.7       1.7
 0 C  py              0.0       0.0       0.0       0.2       5.2       0.1
 0 C  dz2             0.0       0.0       0.0       0.3       0.4       0.0
 0 C  dxy             0.0       0.0       0.0       0.0       0.4       0.0
 1 O  s               0.0       0.0       0.0       7.1      25.2       3.1
 1 O  px              0.0       0.0       0.0       0.4       1.0       0.1
 1 O  py              0.0       0.1       0.1       1.3       3.2       0.4
 2 N  s               0.0       0.0       0.0       9.7       0.1       4.0
 2 N  px              0.0       0.0       0.1       0.9       0.0       0.0
 2 N  py              0.0       0.2       0.0       0.0       4.3       0.2
 3 C  s               7.4      52.3      39.6      11.8       8.7       6.5
 3 C  px              0.0       0.0       0.0       0.1       0.2       2.4
 3 C  py              0.0       0.0       0.0       0.1       4.0       1.0
 3 C  dz2             0.0       0.0       0.0       0.3       0.2       0.2
 3 C  dx2y2           0.0       0.0       0.0       0.0       0.0       0.1
 3 C  dxy             0.0       0.0       0.0       0.0       0.3       0.1
 4 O  s               0.0       0.0       0.0       7.1      16.2      12.0
 4 O  px              0.0       0.0       0.0       0.4       0.8       0.5
 4 O  py              0.0       0.1       0.1       1.2       1.9       1.5
 5 N  s               0.0       0.0       0.0       9.7       3.7       0.5
 5 N  px              0.1       0.1       0.0       0.2       0.5       3.0
 5 N  py              0.1       0.0       0.0       0.7       0.0       1.0
 6 C  s              86.1       0.1      13.1      11.8       0.5      14.7
 6 C  px              0.0       0.0       0.0       0.2       0.2       6.3
 6 C  py              0.0       0.0       0.0       0.0       1.2       0.0
 6 C  dz2             0.0       0.0       0.0       0.3       0.0       0.4
 6 C  dx2y2           0.0       0.0       0.0       0.1       0.0       0.5
 7 O  s               0.0       0.0       0.0       7.1       1.0      27.3
 7 O  px              0.2       0.0       0.0       1.7       0.2       4.5
 7 O  dx2y2           0.0       0.0       0.0       0.0       0.0       0.1
 8 N  s               0.0       0.0       0.0       9.7       2.4       1.8
 8 N  px              0.1       0.1       0.0       0.2       1.6       1.7
 8 N  py              0.1       0.0       0.0       0.7       0.4       0.9
 9 H  s               0.0       0.0       0.0       1.5       0.0       0.8
10 H  s               0.0       0.0       0.0       1.5       0.7       0.1
11 H  s               0.0       0.0       0.0       1.5       0.4       0.3

                     12        13        14        15        16        17   
                  -0.90589  -0.86249  -0.86246  -0.64260  -0.64258  -0.60446
                   2.00000   2.00000   2.00000   2.00000   2.00000   2.00000
                  --------  --------  --------  --------  --------  --------
 0 C  s               0.1       0.7       0.0       5.7       3.6       0.7
 0 C  px              3.1       0.4      12.8       5.6       0.6       0.3
 0 C  py             10.3       7.7       1.8       1.8       6.1       0.9
 0 C  dx2y2           0.1       0.0       0.6       0.1       0.0       0.1
 0 C  dxy             0.4       0.4       0.1       0.2       0.2       0.3
 1 O  s              11.3       5.6       0.2       2.9       1.8       0.3
 1 O  px              0.2       0.1       0.1       0.8       0.1       0.0
 1 O  py              0.7       0.2       0.1       0.3       0.9       0.0
 2 N  s               5.8      13.2      16.7       0.5       0.1       2.4
 2 N  px              0.9       0.0       0.0       5.7       0.7      19.1
 2 N  py              0.0       0.0       0.0       3.3      22.9       0.0
 2 N  dxy             0.0       0.0       0.0       0.1       0.5       0.0
 3 C  s               0.1       0.1       0.6       0.2       9.0       0.7
 3 C  px              3.6      12.7       0.2       4.8       1.5       0.3
 3 C  py              9.7       1.4       8.3       0.7       7.0       0.9
 3 C  dx2y2           0.1       0.7       0.0       0.0       0.1       0.1
 3 C  dxy             0.4       0.0       0.5       0.0       0.4       0.4
 4 O  s              11.3       0.6       5.2       0.1       4.6       0.3
 4 O  px              0.3       0.1       0.1       0.7       0.2       0.0
 4 O  py              0.7       0.1       0.2       0.1       1.1       0.0
 5 N  s               5.8      28.7       1.2       0.3       0.2       2.4
 5 N  px              0.2       0.0       0.0       3.5      18.2       4.4
 5 N  py              0.7       0.0       0.0      10.6       0.3      14.8
 5 N  dx2y2           0.0       0.0       0.0       0.2       0.3       0.0
 6 C  s               0.1       0.3       0.4       8.0       1.2       0.7
 6 C  px             13.3       3.7       4.1       7.3       1.3       1.2
 6 C  py              0.0       8.0       6.8       0.8       4.6       0.0
 6 C  dx2y2           0.5       0.2       0.3       0.4       0.1       0.5
 6 C  dxy             0.0       0.5       0.3       0.0       0.0       0.0
 7 O  s              11.3       2.6       3.3       4.1       0.6       0.3
 7 O  px              0.9       0.1       0.2       1.1       0.2       0.0
 7 O  py              0.0       0.1       0.1       0.1       0.7       0.0
 8 N  s               5.8       3.0      26.9       0.0       0.5       2.4
 8 N  px              0.2       0.0       0.0      17.1       3.7       5.2
 8 N  py              0.6       0.0       0.0       8.7       3.0      13.9
 8 N  dx2y2           0.0       0.0       0.0       0.4       0.0       0.0
 8 N  dxy             0.0       0.0       0.0       0.1       0.0       0.1
 9 H  s               0.5       2.4       3.1       2.0       0.3       9.1
10 H  s               0.5       5.3       0.2       1.4       0.9       9.1
11 H  s               0.5       0.5       5.0       0.1       2.3       9.1

                     18        19        20        21        22        23   
                  -0.57802  -0.48110  -0.48108  -0.47598  -0.40942  -0.40162
                   2.00000   2.00000   2.00000   2.00000   2.00000   2.00000
                  --------  --------  --------  --------  --------  --------
 0 C  s               0.0       0.0       0.0       0.0       1.6       0.0
 0 C  pz              0.0       0.0       0.0      15.1       0.0      24.9
 0 C  px             11.1       0.1       6.6       0.0       0.6       0.0
 0 C  py              3.3       0.9       1.5       0.0       2.1       0.0
 0 C  dxz             0.0       0.0       0.0       0.0       0.0       0.1
 0 C  dx2y2           0.1       0.3       0.4       0.0       0.0       0.0
 0 C  dxy             0.0       0.2       0.4       0.0       0.0       0.0
 1 O  s               0.0       1.4       0.1       0.0       7.3       0.0
 1 O  pz              0.0       0.0       0.0       3.9       0.0      17.6
 1 O  px              2.0       0.5       0.5       0.0       4.8       0.0
 1 O  py              0.6       0.6       0.5       0.0      16.1       0.0
 1 O  dyz             0.0       0.0       0.0       0.1       0.0       0.2
 1 O  dxy             0.0       0.0       0.0       0.0       0.1       0.0
 2 N  s               0.0       0.1       0.1       0.0       0.2       0.0
 2 N  pz              0.0       0.0       0.0      14.2       0.0      10.1
 2 N  px              0.0      14.7      17.4       0.0       0.0       0.0
 2 N  py             16.0       2.6       1.7       0.0       0.0       0.0
 2 N  dyz             0.0       0.0       0.0       0.0       0.0       0.1
 2 N  dx2y2           0.0       0.3       0.3       0.0       0.1       0.0
 3 C  s               0.0       0.0       0.0       0.0       1.6       0.0
 3 C  pz              0.0       0.0       0.0      15.1       0.0       0.7
 3 C  px             10.5       6.2       0.1       0.0       0.7       0.0
 3 C  py              3.9       1.6       1.1       0.0       1.9       0.0
 3 C  dxz             0.0       0.0       0.0       0.0       0.0       0.2
 3 C  dyz             0.0       0.0       0.0       0.0       0.0       0.1
 3 C  dx2y2           0.1       0.4       0.3       0.0       0.0       0.0
 3 C  dxy             0.0       0.3       0.2       0.0       0.0       0.0
 4 O  s               0.0       0.1       1.3       0.0       7.3       0.0
 4 O  pz              0.0       0.0       0.0       3.9       0.0       0.5
 4 O  px              1.9       0.4       0.6       0.0       5.6       0.0
 4 O  py              0.7       0.6       0.5       0.0      15.2       0.0
 4 O  dxy             0.0       0.0       0.0       0.0       0.1       0.0
 5 N  s               0.0       0.2       0.0       0.0       0.2       0.0
 5 N  pz              0.0       0.0       0.0      14.2       0.0      14.5
 5 N  px             12.4       9.4       1.3       0.0       0.0       0.0
 5 N  py              3.7      21.4       4.4       0.0       0.0       0.0
 5 N  dx2y2           0.0       0.2       0.0       0.0       0.0       0.0
 5 N  dxy             0.0       0.4       0.0       0.0       0.1       0.0
 6 C  s               0.0       0.0       0.0       0.0       1.6       0.0
 6 C  pz              0.0       0.0       0.0      15.1       0.0      17.4
 6 C  px              0.0       0.3       0.2       0.0       2.7       0.0
 6 C  py             14.4       4.5       4.0       0.0       0.0       0.0
 6 C  dyz             0.0       0.0       0.0       0.0       0.0       0.1
 6 C  dx2y2           0.0       0.3       0.2       0.0       0.0       0.0
 6 C  dxy             0.1       0.4       0.4       0.0       0.0       0.0
 7 O  s               0.0       0.7       0.8       0.0       7.3       0.0
 7 O  pz              0.0       0.0       0.0       3.9       0.0      12.3
 7 O  px              0.0       0.5       0.6       0.0      20.8       0.0
 7 O  py              2.6       0.5       0.4       0.0       0.0       0.0
 7 O  dxz             0.0       0.0       0.0       0.1       0.0       0.1
 7 O  dx2y2           0.0       0.0       0.0       0.0       0.2       0.0
 7 O  dxy             0.1       0.0       0.0       0.0       0.0       0.0
 8 N  s               0.0       0.0       0.2       0.0       0.2       0.0
 8 N  pz              0.0       0.0       0.0      14.2       0.0       0.4
 8 N  px             11.7       0.7      11.2       0.0       0.0       0.0
 8 N  py              4.4       6.0      18.7       0.0       0.0       0.0
 8 N  dxz             0.0       0.0       0.0       0.0       0.0       0.3
 8 N  dxy             0.0       0.0       0.4       0.0       0.1       0.0
 9 H  s               0.0       7.2       8.2       0.0       0.3       0.0
10 H  s               0.0      14.6       0.8       0.0       0.3       0.0
11 H  s               0.0       1.3      14.1       0.0       0.3       0.0

                     24        25        26        27        28        29   
                  -0.40161  -0.39259  -0.39258  -0.27572  -0.27570  -0.27099
                   2.00000   2.00000   2.00000   2.00000   2.00000   2.00000
                  --------  --------  --------  --------  --------  --------
 0 C  s               0.0       1.0       0.0       0.0       0.0       0.0
 0 C  pz              3.8       0.0       0.0       0.5       0.0       0.0
 0 C  px              0.0       2.2       0.8       0.0       0.0       0.8
 0 C  py              0.0       6.5       0.6       0.0       0.0       0.2
 0 C  dxz             0.1       0.0       0.0       0.1       1.2       0.0
 0 C  dyz             0.1       0.0       0.0       1.2       0.1       0.0
 0 C  dx2y2           0.0       0.0       0.0       0.0       0.0       2.6
 0 C  dxy             0.0       0.1       0.0       0.0       0.0       1.2
 1 O  s               0.0      11.0       0.1       0.0       0.0       0.0
 1 O  pz              2.7       0.0       0.0      22.1       1.3       0.0
 1 O  px              0.0       8.6       1.4       0.0       0.0      39.5
 1 O  py              0.0      30.9       0.0       0.0       0.0      12.8
 1 O  dxy             0.0       0.2       0.0       0.0       0.0       0.0
 2 N  s               0.0       0.1       0.1       0.0       0.0       1.8
 2 N  pz              6.5       0.0       0.0      19.2      20.9       0.0
 2 N  px              0.0       0.0       0.1       0.0       0.0       0.4
 2 N  py              0.0       1.2       0.6       0.0       0.0       0.7
 2 N  dyz             0.2       0.0       0.0       0.0       0.0       0.0
 2 N  dx2y2           0.0       0.1       0.1       0.0       0.0       0.0
 3 C  s               0.0       0.2       0.8       0.0       0.0       0.3
 3 C  pz             28.0       0.0       0.0       0.0       0.5       0.0
 3 C  px              0.0       0.2       3.1       0.0       0.0       0.2
 3 C  py              0.0       2.4       4.3       0.0       0.0       0.5
 3 C  dxz             0.1       0.0       0.0       1.2       0.1       0.0
 3 C  dyz             0.1       0.0       0.0       0.1       1.2       0.0
 3 C  dx2y2           0.0       0.0       0.0       0.0       0.0       0.6
 3 C  dxy             0.0       0.0       0.1       0.0       0.0       0.0
 4 O  s               0.0       2.0       9.0       0.0       0.0       0.0
 4 O  pz             19.8       0.0       0.0       1.8      21.7       0.0
 4 O  px              0.0       4.9       6.7       0.0       0.0       6.9
 4 O  py              0.0       3.2      26.2       0.0       0.0       0.6
 4 O  dyz             0.2       0.0       0.0       0.0       0.0       0.0
 4 O  dxy             0.0       0.1       0.2       0.0       0.0       0.0
 5 N  s               0.0       0.2       0.0       0.0       0.0       0.1
 5 N  pz              2.2       0.0       0.0      37.8       2.3       0.0
 5 N  px              0.0       0.1       1.3       0.0       0.0       1.3
 5 N  py              0.0       0.1       0.4       0.0       0.0       0.6
 5 N  dxz             0.3       0.0       0.0       0.0       0.0       0.0
 5 N  dxy             0.0       0.1       0.0       0.0       0.0       0.0
 6 C  s               0.0       0.3       0.7       0.0       0.0       0.2
 6 C  pz             11.3       0.0       0.0       0.3       0.3       0.0
 6 C  px              0.0       2.8       6.0       0.0       0.0       0.4
 6 C  py              0.0       0.9       0.4       0.0       0.0       0.4
 6 C  dxz             0.1       0.0       0.0       0.7       0.6       0.0
 6 C  dyz             0.2       0.0       0.0       0.6       0.6       0.0
 6 C  dx2y2           0.0       0.0       0.1       0.0       0.0       0.0
 6 C  dxy             0.0       0.0       0.0       0.0       0.0       1.5
 7 O  s               0.0       3.6       7.4       0.0       0.0       0.0
 7 O  pz              8.0       0.0       0.0      11.2      12.2       0.0
 7 O  px              0.0      13.2      26.7       0.0       0.0       0.5
 7 O  py              0.0       0.6       0.5       0.0       0.0      21.0
 7 O  dx2y2           0.0       0.1       0.2       0.0       0.0       0.0
 8 N  s               0.0       0.0       0.2       0.0       0.0       2.6
 8 N  pz             16.3       0.0       0.0       3.1      36.9       0.0
 8 N  px              0.0       0.9       0.4       0.0       0.0       0.6
 8 N  py              0.0       0.6       0.0       0.0       0.0       0.1
 9 H  s               0.0       0.2       0.4       0.0       0.0       0.4
10 H  s               0.0       0.6       0.0       0.0       0.0       0.0
11 H  s               0.0       0.1       0.5       0.0       0.0       0.5

                     30        31        32        33        34        35   
                  -0.27097  -0.26933  -0.23464  -0.04737  -0.04736   0.01317
                   2.00000   2.00000   2.00000   0.00000   0.00000   0.00000
                  --------  --------  --------  --------  --------  --------
 0 C  s               0.3       0.0       0.0       0.0       0.0       0.6
 0 C  pz              0.0       0.2       0.0       6.4      28.0       0.0
 0 C  px              0.2       0.0       0.6       0.0       0.0       0.0
 0 C  py              0.5       0.0       0.2       0.0       0.0       0.1
 0 C  dz2             0.0       0.0       0.0       0.0       0.0       0.2
 0 C  dxz             0.0       0.3       0.0       0.6       0.0       0.0
 0 C  dyz             0.0       1.0       0.0       0.0       0.6       0.0
 0 C  dx2y2           0.2       0.0       1.1       0.0       0.0       0.2
 0 C  dxy             0.0       0.0       0.5       0.0       0.0       0.6
 1 O  s               0.0       0.0       0.0       0.0       0.0       0.1
 1 O  pz              0.0      23.5       0.0       4.0      17.3       0.0
 1 O  px              1.9       0.0      21.2       0.0       0.0       0.0
 1 O  py              0.1       0.0       6.3       0.0       0.0       0.1
 1 O  dyz             0.0       0.0       0.0       0.1       0.3       0.0
 2 N  s               1.2       0.0       0.0       0.0       0.0       6.4
 2 N  pz              0.0       8.2       0.0       7.7       0.0       0.0
 2 N  px              0.2       0.0       0.0       0.0       0.0       2.1
 2 N  py              1.2       0.0       3.4       0.0       0.0       0.0
 2 N  dxz             0.0       0.0       0.0       0.2       0.0       0.0
 2 N  dyz             0.0       0.0       0.0       0.0       1.3       0.0
 2 N  dx2y2           0.0       0.0       0.0       0.0       0.0       0.3
 3 C  s               0.0       0.0       0.0       0.0       0.0       0.6
 3 C  pz              0.0       0.2       0.0      11.0      23.4       0.0
 3 C  px              0.8       0.0       0.6       0.0       0.0       0.0
 3 C  py              0.3       0.0       0.2       0.0       0.0       0.1
 3 C  dz2             0.0       0.0       0.0       0.0       0.0       0.2
 3 C  dxz             0.0       0.4       0.0       0.6       0.0       0.0
 3 C  dyz             0.0       1.0       0.0       0.0       0.6       0.0
 3 C  dx2y2           2.5       0.0       1.3       0.0       0.0       0.2
 3 C  dxy             0.9       0.0       0.3       0.0       0.0       0.7
 4 O  s               0.0       0.0       0.0       0.0       0.0       0.1
 4 O  pz              0.0      23.5       0.0       6.8      14.5       0.0
 4 O  px             32.4       0.0      20.1       0.0       0.0       0.0
 4 O  py             14.3       0.0       7.5       0.0       0.0       0.1
 4 O  dyz             0.0       0.0       0.0       0.1       0.2       0.0
 5 N  s               3.0       0.0       0.0       0.0       0.0       6.4
 5 N  pz              0.0       8.2       0.0       1.5       6.3       0.0
 5 N  px              0.3       0.0       2.6       0.0       0.0       0.5
 5 N  py              0.3       0.0       0.8       0.0       0.0       1.6
 5 N  dxz             0.0       0.0       0.0       0.7       0.4       0.0
 5 N  dyz             0.0       0.0       0.0       0.4       0.0       0.0
 5 N  dxy             0.1       0.0       0.0       0.0       0.0       0.2
 6 C  s               0.1       0.0       0.0       0.0       0.0       0.6
 6 C  pz              0.0       0.2       0.0      34.2       0.2       0.0
 6 C  px              0.3       0.0       0.0       0.0       0.0       0.2
 6 C  py              0.7       0.0       0.8       0.0       0.0       0.0
 6 C  dz2             0.0       0.0       0.0       0.0       0.0       0.2
 6 C  dxz             0.0       1.4       0.0       0.7       0.0       0.0
 6 C  dyz             0.0       0.0       0.0       0.0       0.6       0.0
 6 C  dx2y2           0.1       0.0       0.0       0.0       0.0       0.8
 6 C  dxy             2.3       0.0       1.6       0.0       0.0       0.0
 7 O  s               0.0       0.0       0.0       0.0       0.0       0.1
 7 O  pz              0.0      23.5       0.0      21.2       0.1       0.0
 7 O  px              0.1       0.0       0.0       0.0       0.0       0.1
 7 O  py             32.5       0.0      27.5       0.0       0.0       0.0
 7 O  dxz             0.0       0.0       0.0       0.4       0.0       0.0
 8 N  s               0.4       0.0       0.0       0.0       0.0       6.4
 8 N  pz              0.0       8.2       0.0       2.5       5.3       0.0
 8 N  px              1.0       0.0       2.5       0.0       0.0       0.6
 8 N  py              0.8       0.0       0.9       0.0       0.0       1.5
 8 N  dxz             0.0       0.0       0.0       0.5       0.5       0.0
 8 N  dyz             0.0       0.0       0.0       0.5       0.0       0.0
 8 N  dxy             0.0       0.0       0.0       0.0       0.0       0.2
 9 H  s               0.2       0.0       0.0       0.0       0.0      22.4
10 H  s               0.6       0.0       0.0       0.0       0.0      22.4
11 H  s               0.1       0.0       0.0       0.0       0.0      22.4

                     36        37        38        39        40        41   
                   0.04484   0.04486   0.05980   0.10903   0.16595   0.16597
                   0.00000   0.00000   0.00000   0.00000   0.00000   0.00000
                  --------  --------  --------  --------  --------  --------
 0 C  s               0.2       0.0       0.0      17.9      17.4       4.6
 0 C  pz              0.0       0.0      16.2       0.0       0.0       0.0
 0 C  px              0.3       0.1       0.0       0.0       1.7       3.4
 0 C  py              0.3       0.3       0.0       0.1       1.1       1.8
 0 C  dz2             0.1       0.0       0.0       3.6       5.4       1.4
 0 C  dx2y2           0.5       0.0       0.0       0.4       0.2       0.9
 0 C  dxy             0.4       0.4       0.0       0.9       0.2       0.3
 1 O  s               0.0       0.0       0.0       1.7       2.1       0.5
 1 O  pz              0.0       0.0       5.2       0.0       0.0       0.0
 1 O  px              0.2       0.3       0.0       0.4       1.4       1.2
 1 O  py              0.0       0.3       0.0       1.3       0.4       1.4
 1 O  dyz             0.0       0.0       0.2       0.0       0.0       0.0
 1 O  dx2y2           0.0       0.0       0.0       0.0       0.0       0.2
 1 O  dxy             0.0       0.0       0.0       0.1       0.1       0.0
 2 N  s               3.8       1.8       0.0       2.1       0.0       6.7
 2 N  pz              0.0       0.0      11.3       0.0       0.0       0.0
 2 N  px              6.9       3.4       0.0       2.0       0.0       5.2
 2 N  py              0.6       1.0       0.0       0.0       5.2       0.0
 2 N  dz2             0.0       0.0       0.0       0.1       0.0       0.3
 2 N  dxz             0.0       0.0       0.4       0.0       0.0       0.0
 2 N  dx2y2           0.2       0.1       0.0       0.7       0.0       1.6
 2 N  dxy             0.1       0.2       0.0       0.0       1.0       0.0
 3 C  s               0.0       0.3       0.0      17.9      15.5       6.5
 3 C  pz              0.0       0.0      16.2       0.0       0.0       0.0
 3 C  px              0.2       0.2       0.0       0.0       2.2       2.8
 3 C  py              0.1       0.4       0.0       0.1       1.0       2.1
 3 C  dz2             0.0       0.2       0.0       3.6       4.8       2.0
 3 C  dx2y2           0.2       0.3       0.0       0.3       0.3       0.9
 3 C  dxy             0.1       0.8       0.0       1.1       0.2       0.2
 4 O  s               0.0       0.0       0.0       1.7       1.9       0.8
 4 O  pz              0.0       0.0       5.2       0.0       0.0       0.0
 4 O  px              0.5       0.1       0.0       0.5       1.7       0.8
 4 O  py              0.2       0.1       0.0       1.2       0.2       1.7
 4 O  dyz             0.0       0.0       0.2       0.0       0.0       0.0
 4 O  dx2y2           0.0       0.0       0.0       0.0       0.0       0.2
 4 O  dxy             0.0       0.0       0.0       0.1       0.1       0.0
 5 N  s               4.6       1.0       0.0       2.1       5.3       1.4
 5 N  pz              0.0       0.0      11.3       0.0       0.0       0.0
 5 N  px              3.4       0.2       0.0       0.5       3.6       1.7
 5 N  py              5.3       3.0       0.0       1.5       1.7       3.6
 5 N  dz2             0.0       0.0       0.0       0.1       0.3       0.1
 5 N  dyz             0.0       0.0       0.3       0.0       0.0       0.0
 5 N  dx2y2           0.2       0.1       0.0       0.2       1.0       0.2
 5 N  dxy             0.1       0.2       0.0       0.5       0.5       0.9
 6 C  s               0.2       0.1       0.0      17.9       0.1      21.9
 6 C  pz              0.0       0.0      16.2       0.0       0.0       0.0
 6 C  px              0.4       0.2       0.0       0.2       0.0       2.0
 6 C  py              0.1       0.2       0.0       0.0       6.1       0.0
 6 C  dz2             0.1       0.1       0.0       3.6       0.0       6.8
 6 C  dx2y2           0.8       0.3       0.0       1.3       0.0       0.0
 6 C  dxy             0.1       0.2       0.0       0.0       1.5       0.0
 7 O  s               0.0       0.0       0.0       1.7       0.0       2.6
 7 O  pz              0.0       0.0       5.2       0.0       0.0       0.0
 7 O  px              0.1       0.1       0.0       1.7       0.0       1.5
 7 O  py              0.2       0.4       0.0       0.0       2.9       0.0
 7 O  dxz             0.0       0.0       0.3       0.0       0.0       0.0
 7 O  dx2y2           0.0       0.0       0.0       0.1       0.0       0.1
 7 O  dxy             0.0       0.0       0.0       0.0       0.3       0.0
 8 N  s               0.0       5.6       0.0       2.1       4.8       2.0
 8 N  pz              0.0       0.0      11.3       0.0       0.0       0.0
 8 N  px              0.9       3.0       0.0       0.5       4.2       1.0
 8 N  py              0.7       7.2       0.0       1.4       1.0       4.2
 8 N  dz2             0.0       0.0       0.0       0.1       0.2       0.1
 8 N  dyz             0.0       0.0       0.3       0.0       0.0       0.0
 8 N  dx2y2           0.2       0.1       0.0       0.2       0.9       0.2
 8 N  dxy             0.1       0.2       0.0       0.6       0.5       1.0
 9 H  s              30.7      14.4       0.0       2.0       0.0       0.7
10 H  s              36.6       8.4       0.0       2.0       0.6       0.2
11 H  s               0.3      44.8       0.0       2.0       0.5       0.2

                     42        43        44        45        46        47   
                   0.19336   0.19340   0.22138   0.26660   0.26663   0.33904
                   0.00000   0.00000   0.00000   0.00000   0.00000   0.00000
                  --------  --------  --------  --------  --------  --------
 0 C  s               1.7       9.7      10.1       0.4      15.0       8.5
 0 C  px              2.7       4.3       3.1      14.2       0.5       0.9
 0 C  py              2.8      14.1      10.4       4.4       0.1       2.9
 0 C  dz2             0.0       0.1       0.0       0.0       2.0       0.7
 0 C  dx2y2           0.0       1.3       0.5       1.6       0.1       0.1
 0 C  dxy             0.7       2.5       1.3       0.4       0.7       0.2
 1 O  s               0.8       4.4       1.8       0.0       0.7       0.4
 1 O  px              0.0       0.2       0.3       4.8       0.2       0.2
 1 O  py              0.1       0.4       0.9       1.6       0.0       0.6
 1 O  dz2             0.0       0.0       0.1       0.0       0.1       0.0
 1 O  dx2y2           0.0       0.0       0.0       0.6       0.0       0.0
 1 O  dxy             0.0       0.0       0.0       0.2       0.0       0.1
 2 N  s               0.7       0.0       0.3       3.9       0.6       5.4
 2 N  px              1.6       0.0       0.8       1.3       0.2       3.2
 2 N  py              0.1       7.8       0.0       1.0       7.0       0.0
 2 N  dz2             0.2       0.0       0.4       1.1       0.2       1.8
 2 N  dx2y2           0.3       0.0       1.5       2.3       0.4       0.1
 2 N  dxy             0.1       5.7       0.0       0.1       0.2       0.0
 3 C  s               4.2       7.2      10.1       9.3       6.1       8.5
 3 C  px              3.6       4.1       3.6       5.2       8.7       1.0
 3 C  py              5.9      10.3       9.8       2.5       2.8       2.8
 3 C  dz2             0.0       0.1       0.0       1.2       0.8       0.7
 3 C  dx2y2           0.1       0.9       0.4       1.2       0.5       0.1
 3 C  dxy             1.6       2.0       1.4       0.0       1.0       0.2
 4 O  s               1.9       3.3       1.8       0.4       0.3       0.4
 4 O  px              0.0       0.2       0.3       1.6       3.2       0.2
 4 O  py              0.2       0.2       0.8       1.1       0.8       0.5
 4 O  dx2y2           0.0       0.0       0.0       0.3       0.4       0.0
 4 O  dxy             0.0       0.0       0.0       0.0       0.1       0.1
 5 N  s               0.1       0.6       0.3       0.1       4.3       5.4
 5 N  px              4.8       1.6       0.2       6.1       0.3       0.7
 5 N  py              2.1       0.9       0.6       1.6       1.3       2.5
 5 N  dz2             0.0       0.2       0.4       0.0       1.2       1.8
 5 N  dx2y2           4.0       0.2       0.4       0.3       0.6       0.0
 5 N  dxy             1.0       0.9       1.1       0.0       2.0       0.0
 6 C  s              11.2       0.2      10.1      13.4       2.0       8.5
 6 C  px             20.9       0.3      13.4       0.1       0.0       3.8
 6 C  py              0.1       2.7       0.0       2.4      16.6       0.0
 6 C  dz2             0.1       0.0       0.0       1.8       0.3       0.7
 6 C  dx2y2           4.4       0.1       1.8       0.7       0.1       0.3
 6 C  dxy             0.0       0.1       0.0       0.3       1.7       0.0
 7 O  s               5.1       0.1       1.8       0.6       0.1       0.4
 7 O  px              0.6       0.0       1.1       0.1       0.0       0.7
 7 O  py              0.0       0.1       0.0       0.8       5.7       0.0
 7 O  dz2             0.0       0.0       0.1       0.1       0.0       0.0
 7 O  dxy             0.0       0.0       0.0       0.1       0.7       0.0
 8 N  s               0.3       0.5       0.3       2.7       1.8       5.4
 8 N  px              3.2       3.0       0.2       3.1       3.1       0.9
 8 N  py              2.4       0.9       0.6       1.0       2.3       2.4
 8 N  dz2             0.1       0.1       0.4       0.7       0.5       1.8
 8 N  dx2y2           3.5       1.2       0.3       0.8       0.0       0.0
 8 N  dxy             0.3       1.2       1.2       0.9       1.2       0.0
 9 H  s               4.1       0.1       1.9       0.8       0.1       8.4
10 H  s               0.6       3.6       1.9       0.0       0.9       8.4
11 H  s               1.5       2.7       1.9       0.6       0.4       8.4

                     48        49        50        51        52        53   
                   0.34805   0.38450   0.44545   0.44548   0.47263   0.47270
                   0.00000   0.00000   0.00000   0.00000   0.00000   0.00000
                  --------  --------  --------  --------  --------  --------
 0 C  s               0.0       0.0       1.8       0.0       0.0       0.0
 0 C  pz             30.1       0.0       0.0       0.0      22.5      37.9
 0 C  px              0.0      18.3       2.1      22.9       0.0       0.0
 0 C  py              0.0       5.5       4.1       7.7       0.0       0.0
 0 C  dz2             0.0       0.0       0.1       0.0       0.0       0.0
 0 C  dx2y2           0.0       0.3       0.1       0.1       0.0       0.0
 0 C  dxy             0.0       0.1       0.2       0.0       0.0       0.0
 1 O  s               0.0       0.0       0.3       0.0       0.0       0.0
 1 O  pz              0.2       0.0       0.0       0.0       1.3       2.2
 1 O  px              0.0       3.9       0.1       2.3       0.0       0.0
 1 O  py              0.0       1.2       0.1       0.7       0.0       0.0
 2 N  pz              3.0       0.0       0.0       0.0       2.5       0.0
 2 N  px              0.0       0.0       0.1       0.4       0.0       0.0
 2 N  py              0.0       3.3       2.1       0.5       0.0       0.0
 2 N  dz2             0.0       0.0       0.7       2.7       0.0       0.0
 2 N  dx2y2           0.0       0.0       0.0       0.2       0.0       0.0
 2 N  dxy             0.0       0.7       0.0       0.0       0.0       0.0
 3 C  s               0.0       0.0       0.5       1.3       0.0       0.0
 3 C  pz             30.1       0.0       0.0       0.0       8.7      51.6
 3 C  px              0.0      17.4      21.7       2.3       0.0       0.0
 3 C  py              0.0       6.5       1.6      11.1       0.0       0.0
 3 C  dx2y2           0.0       0.3       0.0       0.2       0.0       0.0
 3 C  dxy             0.0       0.1       0.2       0.1       0.0       0.0
 4 O  s               0.0       0.0       0.1       0.2       0.0       0.0
 4 O  pz              0.2       0.0       0.0       0.0       0.5       3.0
 4 O  px              0.0       3.7       1.9       0.4       0.0       0.0
 4 O  py              0.0       1.4       0.3       0.6       0.0       0.0
 5 N  s               0.0       0.0       0.1       0.0       0.0       0.0
 5 N  pz              3.0       0.0       0.0       0.0       1.0       1.6
 5 N  px              0.0       2.5       0.1       2.0       0.0       0.0
 5 N  py              0.0       0.8       0.4       0.5       0.0       0.0
 5 N  dz2             0.0       0.0       3.3       0.0       0.0       0.0
 5 N  dx2y2           0.0       0.5       0.1       0.0       0.0       0.0
 5 N  dxy             0.0       0.2       0.2       0.0       0.0       0.0
 6 C  s               0.0       0.0       0.4       1.5       0.0       0.0
 6 C  pz             30.1       0.0       0.0       0.0      59.3       1.1
 6 C  px              0.0       0.0       1.5       4.6       0.0       0.0
 6 C  py              0.0      23.9      24.1       6.4       0.0       0.0
 6 C  dyz             0.0       0.0       0.0       0.0       0.0       0.1
 6 C  dx2y2           0.0       0.0       0.1       0.2       0.0       0.0
 6 C  dxy             0.0       0.4       0.1       0.0       0.0       0.0
 7 O  s               0.0       0.0       0.1       0.3       0.0       0.0
 7 O  pz              0.2       0.0       0.0       0.0       3.4       0.1
 7 O  px              0.0       0.0       0.1       0.1       0.0       0.0
 7 O  py              0.0       5.0       2.4       0.6       0.0       0.0
 7 O  dxy             0.0       0.1       0.0       0.0       0.0       0.0
 8 N  pz              3.0       0.0       0.0       0.0       0.4       2.2
 8 N  px              0.0       2.4       1.0       1.0       0.0       0.0
 8 N  py              0.0       0.9       0.9       0.1       0.0       0.0
 8 N  dz2             0.0       0.0       1.0       2.3       0.0       0.0
 8 N  dx2y2           0.0       0.5       0.0       0.0       0.0       0.0
 8 N  dxy             0.0       0.1       0.0       0.1       0.0       0.0
 9 H  s               0.0       0.0       3.5      13.8       0.0       0.0
10 H  s               0.0       0.0      17.2       0.1       0.0       0.0
11 H  s               0.0       0.0       5.2      12.1       0.0       0.0

                     54        55        56        57        58        59   
                   0.48131   0.54224   0.54228   0.57604   0.60251   0.60259
                   0.00000   0.00000   0.00000   0.00000   0.00000   0.00000
[...]
 4 O  dxz             0.0       0.0      11.5       2.3       6.4       0.0
 4 O  dyz             0.0       0.0      31.5       5.8      17.3       0.0
 4 O  dx2y2           1.2       1.8       0.0       0.0       0.0       1.1
 4 O  dxy             0.3       0.5       0.0       0.0       0.0       4.1
 5 N  s               1.6       0.3       0.0       0.0       0.0       0.4
 5 N  px              0.0       0.9       0.0       0.0       0.0       0.0
 5 N  py              0.7       0.1       0.0       0.0       0.0       0.0
 5 N  dz2             3.6       0.6       0.0       0.0       0.0       0.8
 5 N  dxz             0.0       0.0       0.8       0.1       0.4       0.0
 5 N  dyz             0.0       0.0       0.1       0.7       1.3       0.0
 5 N  dx2y2           1.6      13.0       0.0       0.0       0.0       3.1
 5 N  dxy            18.6       0.1       0.0       0.0       0.0       7.6
 6 C  s               0.0       0.0       0.0       0.0       0.0       2.9
 6 C  pz              0.0       0.0       0.4       0.2       0.2       0.0
 6 C  px              0.0       0.1       0.0       0.0       0.0       0.2
 6 C  py              4.3       0.1       0.0       0.0       0.0       0.0
 6 C  dz2             0.0       0.1       0.0       0.0       0.0       0.9
 6 C  dxz             0.0       0.0       8.1       4.4       7.3       0.0
 6 C  dx2y2           0.2       9.3       0.0       0.0       0.0       4.7
 6 C  dxy             0.5       0.0       0.0       0.0       0.0       0.0
 7 O  s               0.0       1.0       0.0       0.0       0.0       1.3
 7 O  pz              0.0       0.0       0.5       0.3       0.3       0.0
 7 O  px              0.0       0.7       0.0       0.0       0.0       0.5
 7 O  dz2             0.1       4.8       0.0       0.0       0.0       5.3
 7 O  dxz             0.0       0.0      33.0      18.1      23.7       0.0
 7 O  dx2y2           0.0       0.0       0.0       0.0       0.0       5.2
 7 O  dxy             3.7       0.1       0.0       0.0       0.0       0.0
 8 N  s               1.1       0.7       0.0       0.0       0.0       0.4
 8 N  px              0.1       0.8       0.0       0.0       0.0       0.0
 8 N  py              0.7       0.1       0.0       0.0       0.0       0.0
 8 N  dz2             2.6       1.6       0.0       0.0       0.0       0.8
 8 N  dxz             0.0       0.0       0.0       0.9       0.5       0.0
 8 N  dyz             0.0       0.0       0.8       0.0       1.2       0.0
 8 N  dx2y2           0.0      13.7       0.0       0.0       0.0       2.3
 8 N  dxy            17.8       1.7       0.0       0.0       0.0       8.5
 9 H  s               0.0       0.7       0.0       0.0       0.0       0.3
10 H  s               0.6       0.1       0.0       0.0       0.0       0.2
11 H  s               0.4       0.3       0.0       0.0       0.0       0.3

                    126       127       128       129       130       131   
                   3.30539   3.30542   3.48690   3.48696   3.53192   3.62907
                   0.00000   0.00000   0.00000   0.00000   0.00000   0.00000
                  --------  --------  --------  --------  --------  --------
 0 C  s               0.1       0.2       0.3       4.4       0.0       0.8
 0 C  px              0.2       0.1       0.0       1.1       0.3       0.5
 0 C  py              0.1       0.1       0.2       3.4       0.1       1.6
 0 C  dz2             0.0       0.0       0.0       0.7       0.0       0.1
 0 C  dx2y2           7.6       5.7       0.1       0.8       7.7       2.2
 0 C  dxy             2.9       2.6       0.1       2.1       3.2       5.4
 1 O  s               0.0       0.0       0.2       3.6       0.0       1.3
 1 O  px              0.4       0.3       0.0       0.6       0.3       0.3
 1 O  py              0.2       0.1       0.1       2.0       0.1       1.0
 1 O  dz2             0.0       0.0       0.6      10.4       0.0       2.1
 1 O  dx2y2          14.9      11.4       0.5       9.6       9.3       3.4
 1 O  dxy             5.9       4.9       1.4      23.2       3.8       8.3
 2 N  s               0.1       0.7       0.0       0.0       0.0       0.1
 2 N  px              0.1       0.6       0.0       0.0       0.0       0.0
 2 N  py              0.5       0.1       0.0       0.2       1.1       0.0
 2 N  dz2             0.0       0.2       0.1       0.0       0.0       0.1
 2 N  dx2y2           0.1       0.1       0.4       0.0       0.0       6.1
 2 N  dxy             5.8       0.7       0.0       0.3       7.6       0.0
 3 C  s               0.3       0.0       2.5       2.2       0.0       0.8
 3 C  px              0.1       0.2       0.6       0.7       0.2       0.6
 3 C  py              0.1       0.1       1.9       1.5       0.1       1.5
 3 C  dz2             0.0       0.0       0.4       0.3       0.0       0.1
 3 C  dx2y2           0.6      14.2       0.4       0.3       8.5       1.6
 3 C  dxy             0.1       3.8       1.3       1.2       2.3       6.0
 4 O  s               0.0       0.0       2.0       1.8       0.0       1.3
 4 O  px              0.0       0.7       0.4       0.3       0.3       0.3
 4 O  py              0.0       0.2       1.1       1.0       0.1       0.9
 4 O  dz2             0.0       0.0       5.8       5.2       0.0       2.1
 4 O  dx2y2           1.2      28.1       3.8       3.5      10.4       2.5
 4 O  dxy             0.3       7.5      14.5      12.9       2.8       9.2
 5 N  s               0.3       0.4       0.0       0.1       0.0       0.1
 5 N  px              0.1       0.6       0.2       0.0       0.8       0.0
 5 N  py              0.6       0.1       0.0       0.1       0.2       0.0
 5 N  dz2             0.1       0.1       0.0       0.1       0.0       0.1
 5 N  dx2y2           3.0       1.6       0.3       0.1       5.4       1.8
 5 N  dxy             0.7       1.3       0.0       0.4       2.2       4.3
 6 C  s               0.0       0.3       4.3       0.4       0.0       0.8
 6 C  px              0.0       0.2       4.3       0.4       0.0       2.1
 6 C  py              0.3       0.0       0.0       0.0       0.3       0.0
 6 C  dz2             0.0       0.0       0.6       0.1       0.0       0.1
 6 C  dx2y2           0.0       0.0       2.8       0.3       0.0       7.5
 6 C  dxy            16.9       1.9       0.0       0.0      10.8       0.0
 7 O  s               0.0       0.0       3.5       0.3       0.0       1.3
 7 O  px              0.0       0.0       2.6       0.2       0.0       1.3
 7 O  py              0.8       0.1       0.0       0.0       0.4       0.0
 7 O  dz2             0.0       0.0      10.1       0.9       0.0       2.1
 7 O  dx2y2           0.1       0.0      31.8       2.8       0.0      11.6
 7 O  dxy            33.3       3.7       0.1       0.0      13.1       0.0
 8 N  s               0.7       0.0       0.0       0.0       0.0       0.1
 8 N  px              0.1       0.6       0.1       0.0       0.8       0.0
 8 N  py              0.6       0.1       0.0       0.1       0.3       0.0
 8 N  dz2             0.2       0.0       0.0       0.0       0.0       0.1
 8 N  dx2y2           0.4       4.8       0.3       0.0       6.0       1.3
 8 N  dxy             0.0       1.5       0.1       0.4       1.6       4.8
 9 H  s               0.0       0.0       0.0       0.0       0.0       0.1
10 H  s               0.0       0.0       0.0       0.0       0.0       0.1
11 H  s               0.0       0.0       0.0       0.0       0.0       0.1



                      *****************************
                      * MAYER POPULATION ANALYSIS *
                      *****************************

  NA   - Mulliken gross atomic population
  ZA   - Total nuclear charge
  QA   - Mulliken gross atomic charge
  VA   - Mayer's total valence
  BVA  - Mayer's bonded valence
  FA   - Mayer's free valence

  ATOM       NA         ZA         QA         VA         BVA        FA
  0 C      5.8523     6.0000     0.1477     4.4526     4.4526    -0.0000
  1 O      8.1622     8.0000    -0.1622     2.3596     2.3596    -0.0000
  2 N      7.2530     7.0000    -0.2530     3.1056     3.1056    -0.0000
  3 C      5.8523     6.0000     0.1477     4.4528     4.4528    -0.0000
  4 O      8.1623     8.0000    -0.1623     2.3595     2.3595     0.0000
  5 N      7.2529     7.0000    -0.2529     3.1054     3.1054     0.0000
  6 C      5.8525     6.0000     0.1475     4.4526     4.4526     0.0000
  7 O      8.1622     8.0000    -0.1622     2.3596     2.3596     0.0000
  8 N      7.2530     7.0000    -0.2530     3.1053     3.1053    -0.0000
  9 H      0.7324     1.0000     0.2676     0.9306     0.9306    -0.0000
 10 H      0.7324     1.0000     0.2676     0.9306     0.9306     0.0000
 11 H      0.7324     1.0000     0.2676     0.9306     0.9306    -0.0000

  Mayer bond orders larger than 0.100000
B(  0-C ,  1-O ) :   2.1672 B(  0-C ,  2-N ) :   1.0786 B(  0-C ,  8-N ) :   1.0786 
B(  2-N ,  3-C ) :   1.0788 B(  2-N ,  9-H ) :   0.8323 B(  3-C ,  4-O ) :   2.1670 
B(  3-C ,  5-N ) :   1.0786 B(  5-N ,  6-C ) :   1.0787 B(  5-N , 10-H ) :   0.8323 
B(  6-C ,  7-O ) :   2.1671 B(  6-C ,  8-N ) :   1.0786 B(  8-N , 11-H ) :   0.8323 


-------
TIMINGS
-------

Total SCF time: 0 days 0 hours 0 min 5 sec 

Total time                  ....       5.750 sec
Sum of individual times     ....       5.347 sec  ( 93.0%)

SCF preparation             ....       0.142 sec  (  2.5%)
Fock matrix formation       ....       4.538 sec  ( 78.9%)
  Startup                   ....       0.045 sec  (  1.0% of F)
  Split-RI-J                ....       1.458 sec  ( 32.1% of F)
  XC integration            ....       2.627 sec  ( 57.9% of F)
    Basis function eval.    ....       0.768 sec  ( 29.2% of XC)
    Density eval.           ....       0.379 sec  ( 14.4% of XC)
    XC-Functional eval.     ....       0.210 sec  (  8.0% of XC)
    XC-Potential eval.      ....       0.573 sec  ( 21.8% of XC)
Diagonalization             ....       0.000 sec  (  0.0%)
Density matrix formation    ....       0.145 sec  (  2.5%)
Total Energy calculation    ....       0.025 sec  (  0.4%)
Population analysis         ....       0.059 sec  (  1.0%)
Orbital Transformation      ....       0.037 sec  (  0.6%)
Orbital Orthonormalization  ....       0.000 sec  (  0.0%)
DIIS solution               ....       0.323 sec  (  5.6%)
  MO trafo                  ....       0.000 sec  (  0.0 % of DIIS)
  Orb grad                  ....       0.000 sec  (  0.0 % of DIIS)
  Energy W gradient         ....       0.000 sec  (  0.0 % of DIIS)
  DIIS error                ....       0.003 sec  (  0.8 % of DIIS)
  DIIS work                 ....       0.287 sec  ( 88.9 % of DIIS)
  Form Q                    ....       0.000 sec  (  0.0 % of DIIS)
  Form QpQm                 ....       0.000 sec  (  0.0 % of DIIS)
  Exp/Cayley                ....       0.000 sec  (  0.0 % of DIIS)
  Orb update                ....       0.000 sec  (  0.0 % of DIIS)
  Wake-sleep                ....       0.014 sec  (  4.3 % of DIIS)
SOSCF solution              ....       0.078 sec  (  1.4%)
  MO trafo                  ....       0.035 sec  ( 45.2 % of SOSCF)
  Orb grad                  ....       0.001 sec  (  1.5 % of SOSCF)
  Rot update                ....       0.022 sec  ( 28.3 % of SOSCF)
  Step                      ....       0.019 sec  ( 24.9 % of SOSCF)
Finished LeanSCF after   5.8 sec

Maximum memory used throughout the entire LEANSCF-calculation: 11.2 MB


-------------------------------------------------------------------------------
                          DFT DISPERSION CORRECTION                            
                                                                               
                                DFTD4 V3.4.0                                   
-------------------------------------------------------------------------------
The PBE functional is recognized
Active option DFTDOPT                   ...         5   

-------------------------   ----------------
Dispersion correction           -0.012263340
-------------------------   ----------------

------------------   -----------------
gCP correction             0.062050143
------------------   -----------------

-------------------------   --------------------
FINAL SINGLE POINT ENERGY      -505.175535430614
-------------------------   --------------------


------------------------------------------------------------------------------
                              ORCA PROPERTY CALCULATIONS
------------------------------------------------------------------------------

GBWName                                 ... sp.gbw
Number of atoms                         ...     12
Number of basis functions               ...    132
Max core memory                         ...   1024 MB

Electric properties:
Dipole moment                           ... YES
Quadrupole moment                       ...  NO
Static polarizability (Dipole/Dipole)   ...  NO
Static polarizability (Dipole/Quad.)    ...  NO
Static polarizability (Quad./Quad.)     ...  NO
Static polarizability (Velocity)        ...  NO

Atomic electric properties:
Dipole moment                           ...  NO
Quadrupole moment                       ...  NO
Static polarizability                   ...  NO

Choice of electric origin               ... Center of mass
Position of electric origin             ...     0.000000     0.000000     0.000000

General magnetic properties:
Magnetizability                         ...  NO

EPR properties:
g-Tensor (aka g-matrix)                 ...  NO
Zero-Field splitting spin-orbit         ...  NO
Zero-field splitting spin-spin          ...  NO
Hyperfine couplings                     ...  NO (   0 nuclei)
Quadrupole couplings                    ...  NO (   0 nuclei)
Contact density                         ...  NO (   0 nuclei)

NMR properties:
Chemical shifts                         ...  NO (   0 nuclei)
Spin-rotation constants                 ...  NO (   0 nuclei)
Spin-spin couplings                     ...  NO (   0 nuclei,    0 pairs)

Choice of magnetic origin               ... GIAO
Position of magnetic origin             ...     0.000000     0.000000     0.000000

Properties with geometric perturbations:
SCF Hessian                             ...  NO
IR spectrum                             ...  NO
VCD spectrum                            ...  NO
X-ray spectroscopy properties:
SCF XES/XAS/RIXS spectra                ...  NO


-------------
DIPOLE MOMENT
-------------

Method             : SCF
Type of density    : Electron Density
Multiplicity       :   1
Irrep              :   0
Energy             :  -505.2253222334490488 Eh
Relativity type    : 
Basis              : AO
                                X                 Y                 Z
Electronic contribution:      0.000025942      -0.000140797       0.000566588
Nuclear contribution   :     -0.000157756       0.000437425      -0.000868312
                        -----------------------------------------
Total Dipole Moment    :     -0.000131814       0.000296628      -0.000301724
                        -----------------------------------------
Magnitude (a.u.)       :      0.000443171
Magnitude (Debye)      :      0.001126452



--------------------
Rotational spectrum 
--------------------
 
Rotational constants in cm-1:             0.068349             0.068343             0.034173 
Rotational constants in MHz :          2049.050884          2048.880649          1024.482887 

Dipole components along the rotational axes: 
x,y,z [a.u.] :    -0.000132     0.000297    -0.000302 
x,y,z [Debye]:    -0.000335     0.000754    -0.000767 

 

Dipole moment calculation done in   0.0 sec 

Maximum memory used throughout the entire PROP-calculation: 7.4 MB

--------------------------------
SUGGESTED CITATIONS FOR THIS RUN
--------------------------------

Below you find a list of papers that are relevant to this ORCA run
We neither can nor want to force you to cite these papers, but we appreciate if you do
You receive ORCA, which is the product of decades of hard work by many enthusiastic individuals, for free
The only thing we kindly ask in return is that you cite our papers,
We deeply appreciate it, if you show your appreciation for ORCA by not just citing the generic ORCA reference.

Please note that relegating all ORCA citations to the supporting information does *not* help us.
SI sections are not indexed - citations you put there will not count into any citation statistics
But we need these citations in order to attract the funding resources that allow us to do what we are doing

Therefore, if you are a happy ORCA user, please consider citing a few of the papers listed below in the main body of your paper

In addition to the list printed below, the program has created the file sp.bibtex that contains the list in bibtex format
You can import this file easily into all common literature databanks and citation aid programs


List of essential papers. We consider these as the minimum necessary citations

  1. Neese,F.
     Software update: the ORCA program system, version 5.0
     WIRES Comput. Molec. Sci., 2022 12(1)e1606
     doi.org/10.1002/wcms.1606

List of papers to cite with high priority. The work reported in these papers was absolutely
necessary for this run to complete.
Our perspective: the developers of density functionals and basis sets usually get cited in chemistry papers
Good! But without the algorithms to do something with them, the functionals or basis sets would not do anything.
Hence, in our opinion, the algorithm design and method developments papers are equally worthy of getting cited

  1. Neese,F.
     An improvement of the resolution of the identity approximation for the formation of the Coulomb matrix
     J. Comp. Chem., 2003 24(14)1740-1747
     doi.org/10.1002/jcc.10318
  2. Neese,F.
     The SHARK Integral Generation and Digestion System
     J. Comp. Chem., 2022  1-16
     doi.org/10.1002/jcc.26942
  3. Caldeweyher,E.; Bannwarth,C.; Grimme,S.
     Extension of the D3 dispersion coefficient model
     J. Chem. Phys., 2017 147 034112-XXXX
     doi.org/10.1063/1.4993215
  4. Caldeweyher,E.; Ehlert,S.; Hansen,A.; Neugebauer,H.; Spicher,S.; Bannwarth,C.; Grimme,S.
     A generally applicable atomic-charge dependent London dispersion correction
     J. Chem. Phys., 2019 150 154122-XXXX
     doi.org/10.1063/1.5090222
  5. Caldeweyher,E.; Mewes,J.; Ehlert,S.; Grimme,S.
     Extension and evaluation of the D4 London-dispersion model for periodic systems
     Phys. Chem. Chem. Phys., 2020 22(16)8499-8512
     doi.org/10.1039/D0CP00502A

List of suggested additional citations. These are papers that are important in the 'surrounding' of 
of this run, or papers that preceded the highly important papers. If you like your results we are grateful for a citation.

  1. Neese,F.
     The ORCA program system
     WIRES Comput. Molec. Sci., 2012 2(1)73-78
     doi.org/10.1002/wcms.81
  2. Neese,F.
     Software update: the ORCA program system, version 4.0
     WIRES Comput. Molec. Sci., 2018 8(1)1-6
     doi.org/10.1002/wcms.1327
  3. Neese,F.; Wennmohs,F.; Becker,U.; Riplinger,C.
     The ORCA quantum chemistry program package
     J. Chem. Phys., 2020 152 Art. No. L224108
     doi.org/10.1063/5.0004608

List of optional additional citations

  1. Neese,F.
     Approximate second-order SCF convergence for spin unrestricted wavefunctions
     Chem. Phys. Lett., 2000 325(1-3)93-98
     doi.org/10.1016/s0009-2614(00)00662-x

Timings for individual modules:

Sum of individual times          ...        7.112 sec (=   0.119 min)
Startup calculation              ...        0.578 sec (=   0.010 min)   8.1 %
SCF iterations                   ...        6.436 sec (=   0.107 min)  90.5 %
Property calculations            ...        0.097 sec (=   0.002 min)   1.4 %
                             ****ORCA TERMINATED NORMALLY****
TOTAL RUN TIME: 0 days 0 hours 0 minutes 7 seconds 712 msec
