14
 energy: -307.637005091088 gnorm: 0.029746029140 xtb: 6.7.1 (edcfbbe)
C           -2.11361966933660       -0.54226116894029        0.70836171501389
C           -1.35556116780069       -0.32822746104545       -0.60548204216831
C           -0.00770269660341        0.27323771442108       -0.30786289383642
O            0.25506262771303        1.45710561704568       -0.35350685325665
O            0.87259881808667       -0.65274901548925        0.05351264652371
C            2.18481615186815       -0.21702643469617        0.41659581898460
H           -3.09350467227081       -0.96132930892599        0.50134708252216
H           -1.56623517329404       -1.22642523334346        1.35143825409886
H           -2.24042560029279        0.40387692977897        1.22917097644468
H           -1.90538400724433        0.35701203475820       -1.24938857335364
H           -1.21117552683670       -1.28389273186893       -1.10730218379067
H            2.68921081029166       -1.09612959818572        0.80486198295666
H            2.12297428864075        0.56818106975178        1.17098331781889
H            2.70118638839697        0.17388704127705       -0.46079488720419
14
 energy: -307.637823644400 gnorm: 0.011477088463 xtb: 6.7.1 (edcfbbe)
C           -2.11756221374465       -0.54193730574681        0.71150098588828
C           -1.35720998408412       -0.32887675270734       -0.60553503462751
C           -0.00696098059279        0.26859723511366       -0.32401696177684
O            0.25784212946478        1.45984858016112       -0.36396469897425
O            0.87511000272500       -0.66572926979203        0.04717972661608
C            2.19035284654653       -0.21091795838507        0.41835134458391
H           -3.10434775633844       -0.95996687175731        0.50562199379429
H           -1.57827672296448       -1.23332337624845        1.36257909514391
H           -2.24746047226520        0.40532474331971        1.24024203819491
H           -1.90182217820125        0.35953833835037       -1.25363054449275
H           -1.22436839009051       -1.28408666372741       -1.11844866709700
H            2.70472759225170       -1.08877055208456        0.80419349190141
H            2.12871570681277        0.56453560527128        1.18563998477411
H            2.71350113085838        0.18102407811686       -0.45777842094971
14
 energy: -307.637993993233 gnorm: 0.005610907029 xtb: 6.7.1 (edcfbbe)
C           -2.12277629866285       -0.53978326095079        0.71213736620802
C           -1.35794158798772       -0.32997258899063       -0.60391198528559
C           -0.00888162184749        0.26309000708950       -0.31923399580043
O            0.26319955724852        1.45399854476789       -0.37548504088237
O            0.87979563222915       -0.67718282020123        0.04866514695519
C            2.19871173058995       -0.20591811222169        0.41813758712337
H           -3.11307822323958       -0.95467153961753        0.50296109744787
H           -1.59137310849507       -1.23670626718153        1.36786373421750
H           -2.25314412910045        0.40785896484944        1.24470841642280
H           -1.89825016285645        0.35998414621035       -1.25611330778000
H           -1.23377562549670       -1.28562178789331       -1.12188299275091
H            2.72435223444827       -1.08324602969383        0.79534145059837
H            2.12978378833689        0.55818709124206        1.19706241040232
H            2.71561876243969        0.19524443038232       -0.45831446161191
14
 energy: -307.638036913640 gnorm: 0.002865327119 xtb: 6.7.1 (edcfbbe)
C           -2.12523344131554       -0.53895148988121        0.71262853989299
C           -1.35787176456016       -0.33065944049788       -0.60176501635556
C           -0.00604917169434        0.25841396795308       -0.32566503641285
O            0.26716930657479        1.44801488807817       -0.38052952231637
O            0.88307048177359       -0.68268307714792        0.04883688967070
C            2.20203134089129       -0.20379904848228        0.41962416118708
H           -3.11678992426050       -0.94999252785490        0.50184170272150
H           -1.59742452375245       -1.23814482754817        1.36841616355191
H           -2.25301817412766        0.40878398235318        1.24523093147729
H           -1.89761114912220        0.36091496715445       -1.25285824103290
H           -1.23863446319624       -1.28629587272284       -1.12090816671805
H            2.73356728440721       -1.08056852147362        0.79031134792724
H            2.12638119372274        0.55447687133336        1.20295439592201
H            2.71265406796867        0.20575134027313       -0.45618257487383
14
 energy: -307.638058916284 gnorm: 0.001408999278 xtb: 6.7.1 (edcfbbe)
C           -2.12655547649674       -0.53775383161443        0.71279754524498
C           -1.35758853986698       -0.33237351766111       -0.60058887888763
C           -0.00502601466687        0.25525817203872       -0.32549365335238
O            0.27064359506626        1.44287044674126       -0.38504172345253
O            0.88420677218350       -0.68603346247001        0.05192190705474
C            2.20331220738547       -0.20274635353465        0.42023257033282
H           -3.11862388222907       -0.94465689708034        0.49952490320306
H           -1.60242743163428       -1.23848262572193        1.36880434494054
H           -2.25155139632870        0.41027917887771        1.24432919272088
H           -1.89556643512741        0.36015898080531       -1.25188907496168
H           -1.24011243535921       -1.28851311353621       -1.11839227201197
H            2.74069166025818       -1.07932699229780        0.78182348173683
H            2.12464670431836        0.54934846090065        1.20852920616137
H            2.70619183474464        0.21723334575191       -0.45462159476357
14
 energy: -307.638081197279 gnorm: 0.002972556411 xtb: 6.7.1 (edcfbbe)
C           -2.12852356768044       -0.53489840131249        0.71284485337096
C           -1.35665418818998       -0.33676328538795       -0.59952959608012
C           -0.00348644171349        0.25015589703555       -0.32470290721034
O            0.27626539402338        1.43506369091100       -0.39483146345971
O            0.88471833614726       -0.69003975729835        0.05992170417220
C            2.20381438071515       -0.20118074647981        0.42160180612195
H           -3.12253775550281       -0.93323317687642        0.49663315993095
H           -1.61152122950559       -1.23871953422571        1.36976418770100
H           -2.24692989414041        0.41435842348789        1.24230293451153
H           -1.89153106028170        0.35574079809777       -1.25288156902077
H           -1.24022157241647       -1.29472662791602       -1.11288817687010
H            2.75346422402807       -1.07863602993067        0.76068555524043
H            2.12436202962585        0.53605954825440        1.22348918149598
H            2.69102267409928        0.24208232667564       -0.45047301433306
14
 energy: -307.638092614119 gnorm: 0.002168211797 xtb: 6.7.1 (edcfbbe)
C           -2.12891344437380       -0.53356509757190        0.71278214511634
C           -1.35623418894678       -0.33868196459087       -0.59977499675179
C           -0.00318127740450        0.24891101754289       -0.32540051936016
O            0.27685160263107        1.43382902564280       -0.39928243495521
O            0.88421269098711       -0.68980815794168        0.06339639483070
C            2.20327491208281       -0.20066163838678        0.42242616453773
H           -3.12439751585650       -0.92870630599614        0.49693446639280
H           -1.61431989080497       -1.23870713562040        1.37034718292263
H           -2.24426486914356        0.41652075382910        1.24172984701791
H           -1.89060982698297        0.35225420765809       -1.25518477146191
H           -1.23929046248629       -1.29788625566561       -1.11084378646739
H            2.75752149658370       -1.07928692358412        0.75066044246726
H            2.12650775967770        0.52896791218154        1.23181634824095
H            2.68508438443760        0.25208427229051       -0.44766967674626
14
 energy: -307.638104166935 gnorm: 0.000658682467 xtb: 6.7.1 (edcfbbe)
C           -2.12912674627671       -0.53099600314880        0.71253652204185
C           -1.35552890088623       -0.34197981424789       -0.60068564653275
C           -0.00308814827445        0.24759821078405       -0.32693655033017
O            0.27591485847861        1.43318411712637       -0.40548940855443
O            0.88313994585926       -0.68824731957767        0.06838067089265
C            2.20221036951424       -0.19997482839571        0.42382249673182
H           -3.12717506872263       -0.92165915431172        0.49847977446107
H           -1.61763187845326       -1.23770527363522        1.37145096501849
H           -2.23955428552657        0.42075686644252        1.24040692065436
H           -1.88975609362339        0.34505348263483       -1.26046776407064
H           -1.23721891390935       -1.30375791032164       -1.10732350488699
H            2.76304370751011       -1.08134310365140        0.73341950039808
H            2.13088649055830        0.51587008965209        1.24659255455275
H            2.67612608976696        0.26846535575884       -0.44224959736524
14
 energy: -307.638105612973 gnorm: 0.000391643249 xtb: 6.7.1 (edcfbbe)
C           -2.12907862663814       -0.52975371341379        0.71239103544550
C           -1.35532617363172       -0.34315064798672       -0.60112970237825
C           -0.00339794493584        0.24743888491595       -0.32757438632867
O            0.27432526389259        1.43358173918584       -0.40611622240908
O            0.88294548836301       -0.68747060714001        0.06865572503594
C            2.20214068680993       -0.19987467947251        0.42418907974712
H           -3.12771893144182       -0.91993922363036        0.49950829562857
H           -1.61788405985730       -1.23611542882487        1.37217912977642
H           -2.23847519379861        0.42276356703923        1.23935635038101
H           -1.88970782891292        0.34186778296970       -1.26299216204323
H           -1.23647248926513       -1.30605959339866       -1.10577999919765
H            2.76439221947911       -1.08243132701136        0.72728824547161
H            2.13226799964107        0.51038714608904        1.25165403333319
H            2.67423104174357        0.27402120132142       -0.43969250590245
14
 energy: -307.638105612973 gnorm: 0.000391643249 xtb: 6.7.1 (edcfbbe)
C           -2.12907862663814       -0.52975371341379        0.71239103544550
C           -1.35532617363172       -0.34315064798672       -0.60112970237825
C           -0.00339794493584        0.24743888491595       -0.32757438632867
O            0.27432526389259        1.43358173918584       -0.40611622240908
O            0.88294548836301       -0.68747060714001        0.06865572503594
C            2.20214068680993       -0.19987467947251        0.42418907974712
H           -3.12771893144182       -0.91993922363036        0.49950829562857
H           -1.61788405985730       -1.23611542882487        1.37217912977642
H           -2.23847519379861        0.42276356703923        1.23935635038101
H           -1.88970782891292        0.34186778296970       -1.26299216204323
H           -1.23647248926513       -1.30605959339866       -1.10577999919765
H            2.76439221947911       -1.08243132701136        0.72728824547161
H            2.13226799964107        0.51038714608904        1.25165403333319
H            2.67423104174357        0.27402120132142       -0.43969250590245
