
                                 *****************
                                 * O   R   C   A *
                                 *****************

                                            #,                                       
                                            ###                                      
                                            ####                                     
                                            #####                                    
                                            ######                                   
                                           ########,                                 
                                     ,,################,,,,,                         
                               ,,#################################,,                 
                          ,,##########################################,,             
                       ,#########################################, ''#####,          
                    ,#############################################,,   '####,        
                  ,##################################################,,,,####,       
                ,###########''''           ''''###############################       
              ,#####''   ,,,,##########,,,,          '''####'''          '####       
            ,##' ,,,,###########################,,,                        '##       
           ' ,,###''''                  '''############,,,                           
         ,,##''                                '''############,,,,        ,,,,,,###''
      ,#''                                            '''#######################'''  
     '                                                          ''''####''''         
             ,#######,   #######,   ,#######,      ##                                
            ,#'     '#,  ##    ##  ,#'     '#,    #''#        ,####,   ,####,        
            ##       ##  ##   ,#'  ##            #'  '#       #'       #'  '#        
            ##       ##  #######   ##           ,######,      #####,   #    #        
            '#,     ,#'  ##    ##  '#,     ,#' ,#      #,     #,   #   #,  ,#        
             '#######'   ##     ##  '#######'  #'      '#     '####' # '####'        



                #########################################################
                #                        -***-                          #
                #          Department of theory and spectroscopy        #
                #                                                       #
                #                      Frank Neese                      #
                #                                                       #
                #     Directorship, Architecture, Infrastructure        #
                #                    SHARK, DRIVERS                     #
                #        Core code/Algorithms in most modules           #
                #                                                       #
                #        Max Planck Institute fuer Kohlenforschung      #
                #                Kaiser Wilhelm Platz 1                 #
                #                 D-45470 Muelheim/Ruhr                 #
                #                      Germany                          #
                #                                                       #
                #                  All rights reserved                  #
                #                        -***-                          #
                #########################################################


                         Program Version 6.0.0  -   RELEASE  -


 With contributions from (in alphabetic order):
   Daniel Aravena         : Magnetic Suceptibility
   Michael Atanasov       : Ab Initio Ligand Field Theory (pilot matlab implementation)
   Alexander A. Auer      : GIAO ZORA, VPT2 properties, NMR spectrum
   Ute Becker             : All parallelization in ORCA, NUMFREQ, NUMCALC
   Giovanni Bistoni       : ED, misc. LED, open-shell LED, HFLD
   Martin Brehm           : Molecular dynamics
   Dmytro Bykov           : pre 5.0 version of the SCF Hessian
   Marcos Casanova-Páez   : Triplet and SCS-CIS(D). UHF-(DLPNO)-IP/EA/STEOM-CCSD. UHF-CVS-IP/STEOM-CCSD
   Vijay G. Chilkuri      : MRCI spin determinant printing, contributions to CSF-ICE
   Pauline Colinet        : FMM embedding
   Dipayan Datta          : RHF DLPNO-CCSD density
   Achintya Kumar Dutta   : EOM-CC, STEOM-CC
   Nicolas Foglia         : Exact transition moments, OPA infrastructure, MCD improvements
   Dmitry Ganyushin       : Spin-Orbit,Spin-Spin,Magnetic field MRCI
   Miquel Garcia          : C-PCM and meta-GGA Hessian, CCSD/C-PCM, Gaussian charge scheme
   Tiago L. C. Gouveia    : GS-ROHF, GS-ROCIS
   Yang Guo               : DLPNO-NEVPT2, F12-NEVPT2, CIM, IAO-localization
   Andreas Hansen         : Spin unrestricted coupled pair/coupled cluster methods
   Ingolf Harden          : AUTO-CI MPn and infrastructure 
   Benjamin Helmich-Paris : MC-RPA, TRAH-(SCF,CASSCF), AVAS, COSX integrals, SCF dyn. polar.
   Lee Huntington         : MR-EOM, pCC
   Robert Izsak           : Overlap fitted RIJCOSX, COSX-SCS-MP3, EOM
   Riya Kayal             : Wick's Theorem for AUTO-CI, AUTO-CI UHF-CCSDT
   Emily Kempfer          : AUTO-CI, RHF CISDT and CCSDT
   Christian Kollmar      : KDIIS, OOCD, Brueckner-CCSD(T), CCSD density, CASPT2, CASPT2-K, improved NEVPT2
   Axel Koslowski         : Symmetry handling
   Simone Kossmann        : Meta GGA functionals, TD-DFT gradient, OOMP2, (MP2 Hessian; deprecated post 5.0)
   Lucas Lang             : DCDCAS
   Marvin Lechner         : AUTO-CI (C++ implementation), FIC-MRCC
   Spencer Leger          : CASSCF response
   Dagmar Lenk            : GEPOL surface, SMD, ORCA-2-JSON
   Dimitrios Liakos       : Extrapolation schemes; Compound Job, initial MDCI parallelization
   Dimitrios Manganas     : Further ROCIS development; embedding schemes. LFT, Crystal Embedding
   Dimitrios Pantazis     : SARC Basis sets
   Anastasios Papadopoulos: AUTO-CI, single reference methods and gradients
   Taras Petrenko         : pre 6.0 DFT Hessian and TD-DFT gradient, (ASA, deprecated), ECA, 1-Electron XAS/XES, NRVS
   Peter Pinski           : DLPNO-MP2, DLPNO-MP2 Gradient
   Christoph Reimann      : Effective Core Potentials
   Marius Retegan         : Local ZFS, SOC
   Christoph Riplinger    : Optimizer, TS searches, QM/MM, DLPNO-CCSD(T), (RO)-DLPNO pert. Triples
   Michael Roemelt        : Original ROCIS implementation
   Masaaki Saitow         : Open-shell DLPNO-CCSD energy and density
   Barbara Sandhoefer     : DKH picture change effects
   Kantharuban Sivalingam : CASSCF convergence/infrastructure, NEVPT2 and variants, FIC-MRCI
   Bernardo de Souza      : ESD, SOC TD-DFT
   Georgi Stoychev        : AutoAux, RI-MP2 NMR, DLPNO-MP2 response, X2C
   Van Anh Tran           : RI-MP2 g-tensors
   Willem Van den Heuvel  : Paramagnetic NMR
   Zikuan Wang            : NOTCH, Electric field optimization 
   Frank Wennmohs         : Technical directorship and infrastructure
   Hang Xu                : AUTO-CI-Response properties 


 We gratefully acknowledge several colleagues who have allowed us to
 interface, adapt or use parts of their codes:
   Stefan Grimme, W. Hujo, H. Kruse, P. Pracht,  : VdW corrections, initial TS optimization,
                  C. Bannwarth, S. Ehlert,         DFT functionals, gCP, sTDA/sTD-DF
                  L. Wittmann, M. Mueller
   Ed Valeev, F. Pavosevic, A. Kumar             : LibInt (2-el integral package), F12 methods
   Garnet Chan, S. Sharma, J. Yang, R. Olivares  : DMRG
   Ulf Ekstrom                                   : XCFun DFT Library
   Mihaly Kallay                                 : mrcc  (arbitrary order and MRCC methods)
   Frank Weinhold                                : gennbo (NPA and NBO analysis)
   Simon Mueller                                 : openCOSMO-RS
   Christopher J. Cramer and Donald G. Truhlar   : smd solvation model
   Lars Goerigk                                  : TD-DFT with DH, B97 family of functionals
   V. Asgeirsson, H. Jonsson                     : NEB implementation
   FAccTs GmbH                                   : IRC, NEB, NEB-TS, DLPNO-Multilevel, CI-OPT
                                                   MM, QMMM, 2- and 3-layer-ONIOM, Crystal-QMMM,
                                                   LR-CPCM, SF, NACMEs, symmetry and pop. for TD-DFT,
                                                   nearIR, NL-DFT gradient (VV10), updates on ESD,
                                                   ML-optimized integration grids, MBIS, APM,
                                                   GOAT, DOCKER, SOLVATOR, interface openCOSMO-RS
   S Lehtola, MJT Oliveira, MAL Marques          : LibXC Library
   Liviu Ungur et al                             : ANISO software


 Your calculation uses the libint2 library for the computation of 2-el integrals
 For citations please refer to: http://libint.valeyev.net

 Your ORCA version has been built with support for libXC version: 6.2.2
 For citations please refer to: https://libxc.gitlab.io

 This ORCA versions uses:
   CBLAS   interface :  Fast vector & matrix operations
   LAPACKE interface :  Fast linear algebra routines
   SCALAPACK package :  Parallel linear algebra routines
   Shared memory     :  Shared parallel matrices
   BLAS/LAPACK       :  OpenBLAS 0.3.27  USE64BITINT DYNAMIC_ARCH NO_AFFINITY SkylakeX SINGLE_THREADED
        Core in use  :  SkylakeX
   Copyright (c) 2011-2014, The OpenBLAS Project


Your calculation utilizes the geometrical counterpoise correction gCP
Please cite in your paper:
H.Kruse, S. Grimme J.Chem.Phys., 136, (2012), 154101 
   

Your calculation utilizes the atom-pairwise dispersion correction
based on EEQ partial charges (D4)


================================================================================

----- Orbital basis set information -----
Your calculation utilizes the basis: def2-SV(P)
   F. Weigend and R. Ahlrichs, Phys. Chem. Chem. Phys. 7, 3297 (2005).

----- AuxJ basis set information -----
Your calculation utilizes the auxiliary basis: def2/J
   F. Weigend, Phys. Chem. Chem. Phys. 8, 1057 (2006).

================================================================================
                                        WARNINGS
                       Please study these warnings very carefully!
================================================================================


================================================================================
                                       INPUT FILE
================================================================================
NAME = sp.inp
|  1> ! pbe def2-sv(p) def2/J RI DEFGRID1 loosescf d4 GCP(DFT/SV(P)) printgap
|  2> %output
|  3>     printlevel normal
|  4> end
|  5> * xyz 0 1
|  6> C -3.0376207834 -1.457927873 -0.0008638956
|  7> C -1.7404244615 -0.7098242857 6.1441e-05
|  8> C -0.5470869548 -1.3827016756 0.0003584622
|  9> C 0.690581426 -0.7089294296 0.0003995161
| 10> C 1.9239451726 -1.3922352287 0.0004446352
| 11> C 3.103991077 -0.7019096683 -5.17214e-05
| 12> C 3.1039776517 0.7019422653 -0.0005705323
| 13> C 1.923916641 1.3922426998 -0.0003839672
| 14> C 0.6905759103 0.7089036997 0.0001249969
| 15> C -0.5470911036 1.3826540026 0.0002877318
| 16> C -1.7404331987 0.7097649107 0.0002968465
| 17> C -3.0375937403 1.4579811303 0.0001972129
| 18> H -3.6274020363 -1.2017020196 0.8778811984
| 19> H -3.6252765534 -1.2026811493 -0.8813620705
| 20> H -2.8606918338 -2.5300828573 -9.21768e-05
| 21> H -0.5392182202 -2.4642724796 0.0004008232
| 22> H 1.9190721391 -2.4730841794 0.0007470317
| 23> H 4.0456732922 -1.2310458504 -0.0001193904
| 24> H 4.0456267876 1.2311432406 -0.0010388348
| 25> H 1.9190630573 2.4730905848 -0.0006360181
| 26> H -0.5392610939 2.4642230289 0.0002844204
| 27> H -3.6272771127 1.2009430214 0.8787364146
| 28> H -2.8604215056 2.5300953096 0.0021347915
| 29> H -3.6253266943 1.2038434996 -0.8805199014
| 30> *
| 31> 
| 32>                          ****END OF INPUT****
================================================================================

                       ****************************
                       * Single Point Calculation *
                       ****************************

---------------------------------
CARTESIAN COORDINATES (ANGSTROEM)
---------------------------------
  C     -3.037621   -1.457928   -0.000864
  C     -1.740424   -0.709824    0.000061
  C     -0.547087   -1.382702    0.000358
  C      0.690581   -0.708929    0.000400
  C      1.923945   -1.392235    0.000445
  C      3.103991   -0.701910   -0.000052
  C      3.103978    0.701942   -0.000571
  C      1.923917    1.392243   -0.000384
  C      0.690576    0.708904    0.000125
  C     -0.547091    1.382654    0.000288
  C     -1.740433    0.709765    0.000297
  C     -3.037594    1.457981    0.000197
  H     -3.627402   -1.201702    0.877881
  H     -3.625277   -1.202681   -0.881362
  H     -2.860692   -2.530083   -0.000092
  H     -0.539218   -2.464272    0.000401
  H      1.919072   -2.473084    0.000747
  H      4.045673   -1.231046   -0.000119
  H      4.045627    1.231143   -0.001039
  H      1.919063    2.473091   -0.000636
  H     -0.539261    2.464223    0.000284
  H     -3.627277    1.200943    0.878736
  H     -2.860422    2.530095    0.002135
  H     -3.625327    1.203843   -0.880520

----------------------------
CARTESIAN COORDINATES (A.U.)
----------------------------
  NO LB      ZA    FRAG     MASS         X           Y           Z
   0 C     6.0000    0    12.011   -5.740271   -2.755084   -0.001633
   1 C     6.0000    0    12.011   -3.288926   -1.341374    0.000116
   2 C     6.0000    0    12.011   -1.033845   -2.612927    0.000677
   3 C     6.0000    0    12.011    1.305010   -1.339682    0.000755
   4 C     6.0000    0    12.011    3.635729   -2.630943    0.000840
   5 C     6.0000    0    12.011    5.865693   -1.326417   -0.000098
   6 C     6.0000    0    12.011    5.865668    1.326479   -0.001078
   7 C     6.0000    0    12.011    3.635676    2.630957   -0.000726
   8 C     6.0000    0    12.011    1.304999    1.339634    0.000236
   9 C     6.0000    0    12.011   -1.033852    2.612837    0.000544
  10 C     6.0000    0    12.011   -3.288942    1.341261    0.000561
  11 C     6.0000    0    12.011   -5.740220    2.755185    0.000373
  12 H     1.0000    0     1.008   -6.854796   -2.270888    1.658955
  13 H     1.0000    0     1.008   -6.850780   -2.272738   -1.665533
  14 H     1.0000    0     1.008   -5.405924   -4.781164   -0.000174
  15 H     1.0000    0     1.008   -1.018975   -4.656800    0.000757
  16 H     1.0000    0     1.008    3.626521   -4.673452    0.001412
  17 H     1.0000    0     1.008    7.645215   -2.326340   -0.000226
  18 H     1.0000    0     1.008    7.645127    2.326524   -0.001963
  19 H     1.0000    0     1.008    3.626504    4.673464   -0.001202
  20 H     1.0000    0     1.008   -1.019056    4.656707    0.000537
  21 H     1.0000    0     1.008   -6.854560    2.269453    1.660571
  22 H     1.0000    0     1.008   -5.405413    4.781187    0.004034
  23 H     1.0000    0     1.008   -6.850875    2.274935   -1.663941

--------------------------------
INTERNAL COORDINATES (ANGSTROEM)
--------------------------------
 C      0   0   0     0.000000000000     0.00000000     0.00000000
 C      1   0   0     1.497457221803     0.00000000     0.00000000
 C      2   1   0     1.369970246012   120.61061686     0.00000000
 C      3   2   1     1.409181344610   122.01965307   179.96041217
 C      4   3   2     1.409997499482   122.44939758   180.01249599
 C      5   4   3     1.367134946595   120.68516475   179.97391092
 C      6   5   4     1.403852029531   120.32704380     0.00000000
 C      7   6   5     1.367135221422   120.32690072     0.00000000
 C      8   7   6     1.409993548250   120.68476375     0.00000000
 C      9   8   7     1.409169661338   122.44852142   180.00212809
 C     10   9   8     1.369979958254   122.02007829   179.97601034
 C     11  10   9     1.497482217552   120.60586597   180.01222021
 H      1   2   3     1.088892352095   110.55732892   120.45056912
 H      1   2   3     1.088929396231   110.54170856   239.69144799
 H      1   2   3     1.086655768455   110.60175819     0.06329330
 H      3   2   1     1.081599428090   119.83382441   359.97074883
 H      5   4   3     1.080859978040   118.72892658     0.00000000
 H      6   5   4     1.080162255502   120.34055101   180.00645955
 H      7   6   5     1.080165258980   119.33517407   180.00488150
 H      8   7   6     1.080858811924   120.58364227   179.99103603
 H     10   9   8     1.081597368578   118.14781525     0.00000000
 H     12  11  10     1.088864637150   110.55530043   239.50822621
 H     12  11  10     1.086656600963   110.59316338   359.88673400
 H     12  11  10     1.088888697699   110.54790059   120.25687976

---------------------------
INTERNAL COORDINATES (A.U.)
---------------------------
 C      0   0   0     0.000000000000     0.00000000     0.00000000
 C      1   0   0     2.829784046470     0.00000000     0.00000000
 C      2   1   0     2.588868576583   120.61061686     0.00000000
 C      3   2   1     2.662966814344   122.01965307   179.96041217
 C      4   3   2     2.664509123536   122.44939758   180.01249599
 C      5   4   3     2.583510637179   120.68516475   179.97391092
 C      6   5   4     2.652895868363   120.32704380     0.00000000
 C      7   6   5     2.583511156525   120.32690072     0.00000000
 C      8   7   6     2.664501656788   120.68476375     0.00000000
 C      9   8   7     2.662944736160   122.44852142   180.00212809
 C     10   9   8     2.588886930062   122.02007829   179.97601034
 C     11  10   9     2.829831281590   120.60586597   180.01222021
 H      1   2   3     2.057708334782   110.55732892   120.45056912
 H      1   2   3     2.057778338053   110.54170856   239.69144799
 H      1   2   3     2.053481804225   110.60175819     0.06329330
 H      3   2   1     2.043926705695   119.83382441   359.97074883
 H      5   4   3     2.042529347612   118.72892658     0.00000000
 H      6   5   4     2.041210843097   120.34055101   180.00645955
 H      7   6   5     2.041216518848   119.33517407   180.00488150
 H      8   7   6     2.042527143972   120.58364227   179.99103603
 H     10   9   8     2.043922813782   118.14781525     0.00000000
 H     12  11  10     2.057655961125   110.55530043   239.50822621
 H     12  11  10     2.053483377437   110.59316338   359.88673400
 H     12  11  10     2.057701428973   110.54790059   120.25687976

---------------------
BASIS SET INFORMATION
---------------------
There are 2 groups of distinct atoms

 Group   1 Type C   : 7s4p1d contracted to 3s2p1d pattern {511/31/1}
 Group   2 Type H   : 4s contracted to 2s pattern {31}

Atom   0C    basis set group =>   1
Atom   1C    basis set group =>   1
Atom   2C    basis set group =>   1
Atom   3C    basis set group =>   1
Atom   4C    basis set group =>   1
Atom   5C    basis set group =>   1
Atom   6C    basis set group =>   1
Atom   7C    basis set group =>   1
Atom   8C    basis set group =>   1
Atom   9C    basis set group =>   1
Atom  10C    basis set group =>   1
Atom  11C    basis set group =>   1
Atom  12H    basis set group =>   2
Atom  13H    basis set group =>   2
Atom  14H    basis set group =>   2
Atom  15H    basis set group =>   2
Atom  16H    basis set group =>   2
Atom  17H    basis set group =>   2
Atom  18H    basis set group =>   2
Atom  19H    basis set group =>   2
Atom  20H    basis set group =>   2
Atom  21H    basis set group =>   2
Atom  22H    basis set group =>   2
Atom  23H    basis set group =>   2
---------------------------------
AUXILIARY/J BASIS SET INFORMATION
---------------------------------
There are 2 groups of distinct atoms

 Group   1 Type C   : 12s5p4d2f1g contracted to 6s4p3d1f1g pattern {711111/2111/211/2/1}
 Group   2 Type H   : 5s2p1d contracted to 3s1p1d pattern {311/2/1}

Atom   0C    basis set group =>   1
Atom   1C    basis set group =>   1
Atom   2C    basis set group =>   1
Atom   3C    basis set group =>   1
Atom   4C    basis set group =>   1
Atom   5C    basis set group =>   1
Atom   6C    basis set group =>   1
Atom   7C    basis set group =>   1
Atom   8C    basis set group =>   1
Atom   9C    basis set group =>   1
Atom  10C    basis set group =>   1
Atom  11C    basis set group =>   1
Atom  12H    basis set group =>   2
Atom  13H    basis set group =>   2
Atom  14H    basis set group =>   2
Atom  15H    basis set group =>   2
Atom  16H    basis set group =>   2
Atom  17H    basis set group =>   2
Atom  18H    basis set group =>   2
Atom  19H    basis set group =>   2
Atom  20H    basis set group =>   2
Atom  21H    basis set group =>   2
Atom  22H    basis set group =>   2
Atom  23H    basis set group =>   2
------------------------------------------------------------------------------
                             ORCA STARTUP CALCULATIONS
                           -- RI-GTO INTEGRALS CHOSEN --
------------------------------------------------------------------------------
------------------------------------------------------------------------------
                   ___                                                        
                  /   \      - P O W E R E D   B Y -                         
                 /     \                                                     
                 |  |  |   _    _      __       _____    __    __             
                 |  |  |  | |  | |    /  \     |  _  \  |  |  /  |          
                  \  \/   | |  | |   /    \    | | | |  |  | /  /          
                 / \  \   | |__| |  /  /\  \   | |_| |  |  |/  /          
                |  |  |   |  __  | /  /__\  \  |    /   |      \           
                |  |  |   | |  | | |   __   |  |    \   |  |\   \          
                \     /   | |  | | |  |  |  |  | |\  \  |  | \   \       
                 \___/    |_|  |_| |__|  |__|  |_| \__\ |__|  \__/        
                                                                              
                      - O R C A' S   B I G   F R I E N D -                    
                                      &                                       
                       - I N T E G R A L  F E E D E R -                       
                                                                              
 v1 FN, 2020, v2 2021, v3 2022-2024                                           
------------------------------------------------------------------------------


----------------------
SHARK INTEGRAL PACKAGE
----------------------

Number of atoms                             ...     24
Number of basis functions                   ...    192
Number of shells                            ...     96
Maximum angular momentum                    ...      2
Integral batch strategy                     ... SHARK/LIBINT Hybrid
RI-J (if used) integral strategy            ... SPLIT-RIJ (Revised 2003 algorithm where possible)
Printlevel                                  ...      1
Contraction scheme used                     ... SEGMENTED contraction
Prescreening option                         ... SCHWARTZ
   Thresh                                   ... 1.000e-09
   Tcut                                     ... 1.000e-10
   Tpresel                                  ... 1.000e-10 
Coulomb Range Separation                    ... NOT USED
Exchange Range Separation                   ... NOT USED
Multipole approximations                    ... NOT USED
Finite Nucleus Model                        ... NOT USED
CABS basis                                  ... NOT available
Auxiliary Coulomb fitting basis             ... AVAILABLE
   # of basis functions in Aux-J            ...    720
   # of shells in Aux-J                     ...    240
   Maximum angular momentum in Aux-J        ...      4
Auxiliary J/K fitting basis                 ... NOT available
Auxiliary Correlation fitting basis         ... NOT available
Auxiliary 'external' fitting basis          ... NOT available

Checking pre-screening integrals            ... done (  0.0 sec) Dimension = 96
Check shell pair data                       ... done (  0.0 sec)
Shell pair information
Shell pair cut-off parameter TPreSel        ...   1.0e-10
Total number of shell pairs                 ...      4656
Shell pairs after pre-screening             ...      4185
Total number of primitive shell pairs       ...     18720
Primitive shell pairs kept                  ...     11269
          la=0 lb=0:   1591 shell pairs
          la=1 lb=0:   1350 shell pairs
          la=1 lb=1:    294 shell pairs
          la=2 lb=0:    616 shell pairs
          la=2 lb=1:    268 shell pairs
          la=2 lb=2:     66 shell pairs

Calculating one electron integrals          ... done (  0.0 sec)
Calculating RI/J V-Matrix + Cholesky decomp.... done (  0.1 sec)
Calculating Nuclear repulsion               ... done (  0.0 sec) ENN=    639.390133533718 Eh

Diagonalization of the overlap matrix:
Smallest eigenvalue                        ... 2.231e-04
Time for diagonalization                   ...    0.003 sec
Threshold for overlap eigenvalues          ... 1.000e-07
Number of eigenvalues below threshold      ... 0
Time for construction of square roots      ...    0.013 sec
Total time needed                          ...    0.024 sec

-------------------
DFT GRID GENERATION
-------------------

General Integration Accuracy     IntAcc      ... 4.159
Radial Grid Type                 RadialGrid  ... OptM3 with GC (2021)
Angular Grid (max. ang.)         AngularGrid ... 3 (Lebedev-194)
Angular grid pruning method      GridPruning ... 4 (adaptive)
Weight generation scheme         WeightScheme... mBecke (2022)
Basis function cutoff            BFCut       ... 1.0000e-10
Integration weight cutoff        WCut        ... 1.0000e-14
Partially contracted basis set               ... off
Rotationally invariant grid construction     ... off
Angular grids for H and He will be reduced by one unit

Total number of grid points                  ...    55625
Total number of batches                      ...      882
Average number of points per batch           ...       63
Average number of grid points per atom       ...     2318
Initializing property integral containers    ... done (  0.0 sec)

SHARK setup successfully completed in   0.8 seconds

Maximum memory used throughout the entire STARTUP-calculation: 27.6 MB
-------------------------------------------------------------------------------
                                 ORCA GUESS
                   Start orbitals & Density for SCF / CASSCF
-------------------------------------------------------------------------------

------------
SCF SETTINGS
------------
Hamiltonian:
 Density Functional     Method          .... DFT(GTOs)
 Exchange Functional    Exchange        .... PBE
   PBE kappa parameter   XKappa         ....  0.804000
   PBE mue parameter    XMuePBE         ....  0.219520
 Correlation Functional Correlation     .... PBE
   PBE beta parameter  CBetaPBE         ....  0.066725
 LDA part of GGA corr.  LDAOpt          .... PW91-LDA
 Gradients option       PostSCFGGA      .... off
   NL short-range parameter             ....  6.400000
 RI-approximation to the Coulomb term is turned on
   Number of AuxJ basis functions       .... 720


General Settings:
 Integral files         IntName         .... sp
 Hartree-Fock type      HFTyp           .... RHF
 Total Charge           Charge          ....    0
 Multiplicity           Mult            ....    1
 Number of Electrons    NEL             ....   84
 Basis Dimension        Dim             ....  192
 Nuclear Repulsion      ENuc            ....    639.3901335337 Eh

Convergence Acceleration:
 AO-DIIS                CNVDIIS         .... on
   Start iteration      DIISMaxIt       ....    12
   Startup error        DIISStart       ....  0.200000
   # of expansion vecs  DIISMaxEq       ....     5
   Bias factor          DIISBfac        ....   1.050
   Max. coefficient     DIISMaxC        ....  10.000
 MO-DIIS                CNVKDIIS        .... off
 Trust-Rad. Augm. Hess. CNVTRAH         .... auto
   Auto Start mean grad. ratio tolernc. ....  1.125000
   Auto Start start iteration           ....    50
   Auto Start num. interpolation iter.  ....    10
   Max. Number of Micro iterations      ....    24
   Max. Number of Macro iterations      .... Maxiter - #DIIS iter
   Number of Davidson start vectors     ....     2
   Converg. threshold    (grad. norm)   ....   1.000e-04
   Grad. Scal. Fac. for Micro threshold ....   0.100
   Minimum threshold for Micro iter.    ....   1.000e-02
   NR start threshold (gradient norm)   ....   1.000e-04
   Initial trust radius                 ....   0.400
   Minimum AH scaling param. (alpha)    ....   1.000
   Maximum AH scaling param. (alpha)    .... 1000.000
   Quad. conv. algorithm                .... NR
   White noise on init. David. guess    .... on
   Maximum white noise                  ....   0.010
   Pseudo random numbers                .... off
   Inactive MOs                         .... canonical
   Orbital update algorithm             .... Taylor
   Preconditioner                       .... Diag
   Full preconditioner red. dimension   ....   250
 SOSCF                  CNVSOSCF        .... on
   Start iteration      SOSCFMaxIt      ....   150
   Startup grad/error   SOSCFStart      ....  0.003300
   Hessian update       SOSCFHessUp     .... L-BFGS
 Level Shifting         CNVShift        .... on
   Level shift para.    LevelShift      ....    0.2500
   Turn off err/grad.   ShiftErr        ....    0.0010
 Zerner damping         CNVZerner       .... off
 Static damping         CNVDamp         .... on
   Fraction old density DampFac         ....    0.7000
   Max. Damping (<1)    DampMax         ....    0.9800
   Min. Damping (>=0)   DampMin         ....    0.0000
   Turn off err/grad.   DampErr         ....    0.1000

SCF Procedure:
 Maximum # iterations   MaxIter         ....   125
 SCF integral mode      SCFMode         .... Direct
   Integral package                     .... SHARK and LIBINT hybrid scheme
 Reset frequency        DirectResetFreq ....    20
 Integral Threshold     Thresh          ....  1.000e-09 Eh
 Primitive CutOff       TCut            ....  1.000e-10 Eh

Convergence Tolerance:
 Convergence Check Mode ConvCheckMode   .... Total+1el-Energy
 Convergence forced     ConvForced      .... 0
 Energy Change          TolE            ....  1.000e-05 Eh
 1-El. energy change                    ....  1.000e-02 Eh
 Orbital Gradient       TolG            ....  1.000e-04
 Orbital Rotation angle TolX            ....  1.000e-04
 DIIS Error             TolErr          ....  5.000e-04

------------------------------
INITIAL GUESS: MODEL POTENTIAL
------------------------------
Loading Hartree-Fock densities                     ... done
Calculating cut-offs                               ... done
Initializing the effective Hamiltonian             ... done
Setting up the integral package (SHARK)            ... done
Starting the Coulomb interaction                   ... done (   0.2 sec)
Making the grid                                    ... done (   0.2 sec)
Mapping shells                                     ... done
Starting the XC term evaluation                    ... done (   0.2 sec)
  promolecular density results
     # of electrons  =     83.990036549
     EX              =    -64.965530683
     EC              =     -2.785395733
     EX+EC           =    -67.750926416
Transforming the Hamiltonian                       ... done (   0.0 sec)
Diagonalizing the Hamiltonian                      ... done (   0.0 sec)
Back transforming the eigenvectors                 ... done (   0.0 sec)
Now organizing SCF variables                       ... done
                      ------------------
                      INITIAL GUESS DONE (   0.7 sec)
                      ------------------
             **** ENERGY FILE WAS UPDATED (sp.en.tmp) ****
Finished Guess after   0.9 sec
Maximum memory used throughout the entire GUESS-calculation: 21.6 MB

-------------------------------------------------------------------------------------------
                                      ORCA LEAN-SCF
                              memory conserving SCF solver
-------------------------------------------------------------------------------------------

----------------------------------------D-I-I-S--------------------------------------------
Iteration    Energy (Eh)           Delta-E    RMSDP     MaxDP     DIISErr   Damp  Time(sec)
-------------------------------------------------------------------------------------------
               ***  Starting incremental Fock matrix formation  ***
    1    -463.3202773697133807     0.00e+00  3.46e-03  7.82e-02  1.54e-01  0.700   1.1
    2    -463.4282448370528300    -1.08e-01  2.49e-03  4.59e-02  7.66e-02  0.700   1.1
                               ***Turning on AO-DIIS***
    3    -463.4708762150174834    -4.26e-02  1.02e-03  1.33e-02  2.49e-02  0.700   1.1
    4    -463.4949681148776790    -2.41e-02  1.78e-03  3.46e-02  1.11e-02  0.000   1.0
    5    -463.5474657591561254    -5.25e-02  3.79e-04  6.11e-03  4.42e-03  0.000   1.0
                              *** Initializing SOSCF ***
---------------------------------------S-O-S-C-F--------------------------------------
Iteration    Energy (Eh)           Delta-E    RMSDP     MaxDP     MaxGrad    Time(sec)
--------------------------------------------------------------------------------------
    6    -463.5478096235250405    -3.44e-04  1.44e-04  2.90e-03  8.31e-04     1.0
               *** Restarting incremental Fock matrix formation ***
    7    -463.5478280741418757    -1.85e-05  9.01e-05  2.35e-03  2.29e-04     1.1
    8    -463.5478235403692224     4.53e-06  3.75e-05  8.63e-04  5.28e-04     0.9
                 **** Energy Check signals convergence ****

               *****************************************************
               *                     SUCCESS                       *
               *           SCF CONVERGED AFTER   8 CYCLES          *
               *****************************************************

             **** ENERGY FILE WAS UPDATED (sp.en.tmp) ****

----------------
TOTAL SCF ENERGY
----------------

Total Energy       :       -463.54782354036922 Eh          -12613.77755 eV

Components:
Nuclear Repulsion  :        639.39013353371786 Eh           17398.69007 eV
Electronic Energy  :      -1102.93795707408708 Eh          -30012.46762 eV
One Electron Energy:      -1892.68808695569078 Eh          -51502.66119 eV
Two Electron Energy:        789.75012988160370 Eh           21490.19357 eV

Virial components:
Potential Energy   :       -922.94029881275094 Eh          -25114.48233 eV
Kinetic Energy     :        459.39247527238172 Eh           12500.70478 eV
Virial Ratio       :          2.00904531199716

DFT components:
N(Alpha)           :       41.999582429642 electrons
N(Beta)            :       41.999582429642 electrons
N(Total)           :       83.999164859284 electrons
E(X)               :      -66.210644571184 Eh       
E(C)               :       -2.798660887855 Eh       
E(XC)              :      -69.009305459039 Eh       

---------------
SCF CONVERGENCE
---------------

  Last Energy change         ...   -4.5338e-06  Tolerance :   1.0000e-05
  Last MAX-Density change    ...    8.6282e-04  Tolerance :   1.0000e-03
  Last RMS-Density change    ...    3.7549e-05  Tolerance :   1.0000e-04
  Last DIIS Error            ...    8.3076e-04  Tolerance :   5.0000e-04
  Last Orbital Gradient      ...    5.2844e-04  Tolerance :   1.0000e-04
  Last Orbital Rotation      ...    9.4779e-04  Tolerance :   1.0000e-04


----------------
ORBITAL ENERGIES
----------------

  NO   OCC          E(Eh)            E(eV) 
   0   2.0000      -9.900049      -269.3940 
   1   2.0000      -9.899975      -269.3920 
   2   2.0000      -9.897279      -269.3187 
   3   2.0000      -9.897183      -269.3160 
   4   2.0000      -9.888219      -269.0721 
   5   2.0000      -9.888113      -269.0692 
   6   2.0000      -9.886500      -269.0254 
   7   2.0000      -9.886418      -269.0231 
   8   2.0000      -9.886340      -269.0210 
   9   2.0000      -9.886291      -269.0196 
  10   2.0000      -9.884918      -268.9823 
  11   2.0000      -9.884831      -268.9799 
  12   2.0000      -0.792909       -21.5762 
  13   2.0000      -0.751419       -20.4471 
  14   2.0000      -0.698562       -19.0088 
  15   2.0000      -0.688142       -18.7253 
  16   2.0000      -0.664852       -18.0915 
  17   2.0000      -0.613669       -16.6988 
  18   2.0000      -0.611682       -16.6447 
  19   2.0000      -0.541080       -14.7235 
  20   2.0000      -0.534476       -14.5438 
  21   2.0000      -0.526067       -14.3150 
  22   2.0000      -0.464172       -12.6308 
  23   2.0000      -0.433893       -11.8068 
  24   2.0000      -0.433836       -11.8053 
  25   2.0000      -0.397921       -10.8280 
  26   2.0000      -0.395453       -10.7608 
  27   2.0000      -0.393464       -10.7067 
  28   2.0000      -0.370287       -10.0760 
  29   2.0000      -0.368799       -10.0355 
  30   2.0000      -0.360006        -9.7963 
  31   2.0000      -0.345210        -9.3936 
  32   2.0000      -0.344906        -9.3854 
  33   2.0000      -0.340301        -9.2601 
  34   2.0000      -0.337886        -9.1943 
  35   2.0000      -0.313323        -8.5259 
  36   2.0000      -0.288167        -7.8414 
  37   2.0000      -0.283878        -7.7247 
  38   2.0000      -0.281517        -7.6605 
  39   2.0000      -0.253077        -6.8866 
  40   2.0000      -0.212661        -5.7868 
  41   2.0000      -0.190288        -5.1780 
  42   0.0000      -0.061654        -1.6777 
  43   0.0000      -0.034177        -0.9300 
  44   0.0000       0.000117         0.0032 
  45   0.0000       0.039687         1.0799 
  46   0.0000       0.051259         1.3948 
  47   0.0000       0.059397         1.6163 
  48   0.0000       0.060640         1.6501 
  49   0.0000       0.075532         2.0553 
  50   0.0000       0.083577         2.2742 
  51   0.0000       0.090323         2.4578 
  52   0.0000       0.104187         2.8351 
*Only the first 10 virtual orbitals were printed.

                    ********************************
                    * MULLIKEN POPULATION ANALYSIS *
                    ********************************

-----------------------
MULLIKEN ATOMIC CHARGES
-----------------------
   0 C :   -0.204231
   1 C :    0.015040
   2 C :   -0.239898
   3 C :    0.173193
   4 C :   -0.128728
   5 C :   -0.042466
   6 C :   -0.042470
   7 C :   -0.128735
   8 C :    0.173196
   9 C :   -0.239893
  10 C :    0.014996
  11 C :   -0.204200
  12 H :    0.109542
  13 H :    0.109575
  14 H :    0.103145
  15 H :    0.020057
  16 H :    0.035178
  17 H :    0.049605
  18 H :    0.049604
  19 H :    0.035177
  20 H :    0.020060
  21 H :    0.109532
  22 H :    0.103140
  23 H :    0.109582
Sum of atomic charges:    0.0000000

--------------------------------
MULLIKEN REDUCED ORBITAL CHARGES
--------------------------------
  0 C s       :     2.984576  s :     2.984576
      pz      :     1.067494  p :     3.190713
      px      :     1.062794
      py      :     1.060425
      dz2     :     0.004976  d :     0.028943
      dxz     :     0.009905
      dyz     :     0.001890
      dx2y2   :     0.007649
      dxy     :     0.004523

  1 C s       :     3.046195  s :     3.046195
      pz      :     0.977939  p :     2.897201
      px      :     0.922705
      py      :     0.996556
      dz2     :     0.002634  d :     0.041565
      dxz     :     0.007021
      dyz     :     0.005862
      dx2y2   :     0.013361
      dxy     :     0.012687

  2 C s       :     3.386399  s :     3.386399
      pz      :     1.022380  p :     2.819145
      px      :     1.012050
      py      :     0.784715
      dz2     :     0.003168  d :     0.034354
      dxz     :     0.006832
      dyz     :     0.001740
      dx2y2   :     0.013650
      dxy     :     0.008965

  3 C s       :     3.015915  s :     3.015915
      pz      :     0.969310  p :     2.769739
      px      :     0.814737
      py      :     0.985692
      dz2     :     0.002763  d :     0.041153
      dxz     :     0.007080
      dyz     :     0.005695
      dx2y2   :     0.013027
      dxy     :     0.012587

  4 C s       :     3.281407  s :     3.281407
      pz      :     1.002456  p :     2.812667
      px      :     1.003314
      py      :     0.806897
      dz2     :     0.003104  d :     0.034654
      dxz     :     0.006809
      dyz     :     0.001844
      dx2y2   :     0.013924
      dxy     :     0.008973

  5 C s       :     3.179347  s :     3.179347
      pz      :     0.999235  p :     2.828022
      px      :     0.884160
      py      :     0.944626
      dz2     :     0.003069  d :     0.035097
      dxz     :     0.003193
      dyz     :     0.005537
      dx2y2   :     0.010660
      dxy     :     0.012638

  6 C s       :     3.179336  s :     3.179336
      pz      :     0.999234  p :     2.828036
      px      :     0.884185
      py      :     0.944617
      dz2     :     0.003069  d :     0.035097
      dxz     :     0.003193
      dyz     :     0.005537
      dx2y2   :     0.010660
      dxy     :     0.012639

  7 C s       :     3.281408  s :     3.281408
      pz      :     1.002455  p :     2.812673
      px      :     1.003329
      py      :     0.806889
      dz2     :     0.003104  d :     0.034654
      dxz     :     0.006809
      dyz     :     0.001844
      dx2y2   :     0.013924
      dxy     :     0.008974

  8 C s       :     3.015918  s :     3.015918
      pz      :     0.969310  p :     2.769733
      px      :     0.814744
      py      :     0.985679
      dz2     :     0.002763  d :     0.041153
      dxz     :     0.007080
      dyz     :     0.005695
      dx2y2   :     0.013027
      dxy     :     0.012588

  9 C s       :     3.386373  s :     3.386373
      pz      :     1.022374  p :     2.819166
      px      :     1.012058
      py      :     0.784734
      dz2     :     0.003168  d :     0.034354
      dxz     :     0.006832
      dyz     :     0.001740
      dx2y2   :     0.013650
      dxy     :     0.008965

 10 C s       :     3.046200  s :     3.046200
      pz      :     0.977941  p :     2.897241
      px      :     0.922746
      py      :     0.996554
      dz2     :     0.002634  d :     0.041563
      dxz     :     0.007020
      dyz     :     0.005862
      dx2y2   :     0.013360
      dxy     :     0.012687

 11 C s       :     2.984531  s :     2.984531
      pz      :     1.067492  p :     3.190727
      px      :     1.062791
      py      :     1.060444
      dz2     :     0.004978  d :     0.028943
      dxz     :     0.009906
      dyz     :     0.001889
      dx2y2   :     0.007648
      dxy     :     0.004523

 12 H s       :     0.890458  s :     0.890458

 13 H s       :     0.890425  s :     0.890425

 14 H s       :     0.896855  s :     0.896855

 15 H s       :     0.979943  s :     0.979943

 16 H s       :     0.964822  s :     0.964822

 17 H s       :     0.950395  s :     0.950395

 18 H s       :     0.950396  s :     0.950396

 19 H s       :     0.964823  s :     0.964823

 20 H s       :     0.979940  s :     0.979940

 21 H s       :     0.890468  s :     0.890468

 22 H s       :     0.896860  s :     0.896860

 23 H s       :     0.890418  s :     0.890418


------------------------
MULLIKEN OVERLAP CHARGES
------------------------
B(  0-C ,  1-C ) :   0.8498 B(  0-C ,  2-C ) :  -0.2228 B(  0-C , 10-C ) :  -0.2007 
B(  0-C , 11-C ) :  -0.0615 B(  0-C , 12-H ) :   0.6825 B(  0-C , 13-H ) :   0.6825 
B(  0-C , 14-H ) :   0.7079 B(  1-C ,  2-C ) :   0.5853 B(  1-C ,  3-C ) :   0.2886 
B(  1-C ,  8-C ) :  -0.3166 B(  1-C ,  9-C ) :   0.2106 B(  1-C , 10-C ) :   0.2850 
B(  1-C , 11-C ) :  -0.2007 B(  1-C , 15-H ) :  -0.1763 B(  2-C ,  3-C ) :   0.4537 
B(  2-C ,  4-C ) :  -0.3175 B(  2-C ,  7-C ) :   0.0508 B(  2-C ,  9-C ) :  -0.2848 
B(  2-C , 10-C ) :   0.2106 B(  2-C , 15-H ) :   0.8588 B(  3-C ,  4-C ) :   0.3741 
B(  3-C ,  5-C ) :   0.3438 B(  3-C ,  6-C ) :  -0.3608 B(  3-C ,  7-C ) :   0.1010 
B(  3-C ,  8-C ) :  -0.0990 B(  3-C , 10-C ) :  -0.3166 B(  3-C , 15-H ) :  -0.1674 
B(  3-C , 16-H ) :  -0.1614 B(  4-C ,  5-C ) :   0.3030 B(  4-C ,  6-C ) :   0.3548 
B(  4-C ,  7-C ) :  -0.3742 B(  4-C ,  8-C ) :   0.1010 B(  4-C ,  9-C ) :   0.0508 
B(  4-C , 16-H ) :   0.8762 B(  4-C , 17-H ) :  -0.1763 B(  5-C ,  6-C ) :   0.1924 
B(  5-C ,  7-C ) :   0.3548 B(  5-C ,  8-C ) :  -0.3609 B(  5-C , 16-H ) :  -0.1885 
B(  5-C , 17-H ) :   0.8805 B(  5-C , 18-H ) :  -0.1788 B(  6-C ,  7-C ) :   0.3030 
B(  6-C ,  8-C ) :   0.3439 B(  6-C , 17-H ) :  -0.1788 B(  6-C , 18-H ) :   0.8805 
B(  6-C , 19-H ) :  -0.1885 B(  7-C ,  8-C ) :   0.3740 B(  7-C ,  9-C ) :  -0.3175 
B(  7-C , 18-H ) :  -0.1763 B(  7-C , 19-H ) :   0.8762 B(  8-C ,  9-C ) :   0.4537 
B(  8-C , 10-C ) :   0.2885 B(  8-C , 19-H ) :  -0.1614 B(  8-C , 20-H ) :  -0.1674 
B(  9-C , 10-C ) :   0.5854 B(  9-C , 11-C ) :  -0.2228 B(  9-C , 20-H ) :   0.8587 
B( 10-C , 11-C ) :   0.8498 B( 10-C , 20-H ) :  -0.1763 B( 11-C , 21-H ) :   0.6825 
B( 11-C , 22-H ) :   0.7079 B( 11-C , 23-H ) :   0.6825 


                     *******************************
                     * LOEWDIN POPULATION ANALYSIS *
                     *******************************

----------------------
LOEWDIN ATOMIC CHARGES
----------------------
   0 C :   -0.320020
   1 C :   -0.046150
   2 C :   -0.115883
   3 C :   -0.027223
   4 C :   -0.113466
   5 C :   -0.127857
   6 C :   -0.127858
   7 C :   -0.113467
   8 C :   -0.027226
   9 C :   -0.115880
  10 C :   -0.046145
  11 C :   -0.320027
  12 H :    0.130151
  13 H :    0.130190
  14 H :    0.125338
  15 H :    0.119909
  16 H :    0.122126
  17 H :    0.122887
  18 H :    0.122886
  19 H :    0.122126
  20 H :    0.119908
  21 H :    0.130149
  22 H :    0.125340
  23 H :    0.130193

-------------------------------
LOEWDIN REDUCED ORBITAL CHARGES
-------------------------------
  0 C s       :     2.933668  s :     2.933668
      pz      :     1.121459  p :     3.315197
      px      :     1.086030
      py      :     1.107707
      dz2     :     0.013057  d :     0.071154
      dxz     :     0.023475
      dyz     :     0.003839
      dx2y2   :     0.018737
      dxy     :     0.012047

  1 C s       :     2.849616  s :     2.849616
      pz      :     0.963140  p :     3.087152
      px      :     1.061300
      py      :     1.062712
      dz2     :     0.007082  d :     0.109382
      dxz     :     0.013304
      dyz     :     0.012273
      dx2y2   :     0.038580
      dxy     :     0.038143

  2 C s       :     2.891232  s :     2.891232
      pz      :     1.009981  p :     3.133776
      px      :     1.066801
      py      :     1.056993
      dz2     :     0.007024  d :     0.090875
      dxz     :     0.014684
      dyz     :     0.002845
      dx2y2   :     0.038490
      dxy     :     0.027833

  3 C s       :     2.835993  s :     2.835993
      pz      :     0.961453  p :     3.078688
      px      :     1.053767
      py      :     1.063467
      dz2     :     0.007459  d :     0.112542
      dxz     :     0.014511
      dyz     :     0.011683
      dx2y2   :     0.039546
      dxy     :     0.039343

  4 C s       :     2.891676  s :     2.891676
      pz      :     0.991240  p :     3.130587
      px      :     1.078204
      py      :     1.061143
      dz2     :     0.006998  d :     0.091203
      dxz     :     0.014552
      dyz     :     0.002989
      dx2y2   :     0.038522
      dxy     :     0.028142

  5 C s       :     2.890702  s :     2.890702
      pz      :     0.990201  p :     3.144675
      px      :     1.075727
      py      :     1.078748
      dz2     :     0.007048  d :     0.092480
      dxz     :     0.006247
      dyz     :     0.011920
      dx2y2   :     0.031850
      dxy     :     0.035415

  6 C s       :     2.890703  s :     2.890703
      pz      :     0.990200  p :     3.144675
      px      :     1.075729
      py      :     1.078746
      dz2     :     0.007048  d :     0.092480
      dxz     :     0.006248
      dyz     :     0.011920
      dx2y2   :     0.031848
      dxy     :     0.035416

  7 C s       :     2.891675  s :     2.891675
      pz      :     0.991239  p :     3.130588
      px      :     1.078207
      py      :     1.061142
      dz2     :     0.006998  d :     0.091204
      dxz     :     0.014552
      dyz     :     0.002989
      dx2y2   :     0.038522
      dxy     :     0.028143

  8 C s       :     2.835990  s :     2.835990
      pz      :     0.961453  p :     3.078692
      px      :     1.053771
      py      :     1.063468
      dz2     :     0.007460  d :     0.112544
      dxz     :     0.014511
      dyz     :     0.011684
      dx2y2   :     0.039546
      dxy     :     0.039344

  9 C s       :     2.891233  s :     2.891233
      pz      :     1.009973  p :     3.133772
      px      :     1.066805
      py      :     1.056993
      dz2     :     0.007024  d :     0.090876
      dxz     :     0.014684
      dyz     :     0.002844
      dx2y2   :     0.038490
      dxy     :     0.027833

 10 C s       :     2.849622  s :     2.849622
      pz      :     0.963143  p :     3.087146
      px      :     1.061294
      py      :     1.062709
      dz2     :     0.007082  d :     0.109377
      dxz     :     0.013302
      dyz     :     0.012273
      dx2y2   :     0.038577
      dxy     :     0.038144

 11 C s       :     2.933663  s :     2.933663
      pz      :     1.121465  p :     3.315210
      px      :     1.086037
      py      :     1.107708
      dz2     :     0.013059  d :     0.071154
      dxz     :     0.023477
      dyz     :     0.003837
      dx2y2   :     0.018734
      dxy     :     0.012048

 12 H s       :     0.869849  s :     0.869849

 13 H s       :     0.869810  s :     0.869810

 14 H s       :     0.874662  s :     0.874662

 15 H s       :     0.880091  s :     0.880091

 16 H s       :     0.877874  s :     0.877874

 17 H s       :     0.877113  s :     0.877113

 18 H s       :     0.877114  s :     0.877114

 19 H s       :     0.877874  s :     0.877874

 20 H s       :     0.880092  s :     0.880092

 21 H s       :     0.869851  s :     0.869851

 22 H s       :     0.874660  s :     0.874660

 23 H s       :     0.869807  s :     0.869807


---------------------------------
LOEWDIN BOND ORDERS (THRESH 0.050000)
---------------------------------
B(  0-C ,  1-C ) :   1.0983 B(  0-C ,  2-C ) :   0.0814 B(  0-C , 10-C ) :   0.0643 
B(  0-C , 12-H ) :   0.9206 B(  0-C , 13-H ) :   0.9206 B(  0-C , 14-H ) :   0.9292 
B(  1-C ,  2-C ) :   1.5561 B(  1-C ,  3-C ) :   0.0867 B(  1-C ,  8-C ) :   0.0638 
B(  1-C ,  9-C ) :   0.0837 B(  1-C , 10-C ) :   1.2658 B(  1-C , 11-C ) :   0.0643 
B(  2-C ,  3-C ) :   1.3125 B(  2-C ,  4-C ) :   0.0819 B(  2-C ,  8-C ) :   0.0749 
B(  2-C ,  9-C ) :   0.1151 B(  2-C , 10-C ) :   0.0837 B(  2-C , 15-H ) :   0.8756 
B(  3-C ,  4-C ) :   1.3180 B(  3-C ,  5-C ) :   0.0862 B(  3-C ,  6-C ) :   0.0703 
B(  3-C ,  7-C ) :   0.0740 B(  3-C ,  8-C ) :   1.2377 B(  3-C ,  9-C ) :   0.0749 
B(  3-C , 10-C ) :   0.0638 B(  4-C ,  5-C ) :   1.6095 B(  4-C ,  6-C ) :   0.0854 
B(  4-C ,  7-C ) :   0.1229 B(  4-C ,  8-C ) :   0.0740 B(  4-C , 16-H ) :   0.8829 
B(  5-C ,  6-C ) :   1.3853 B(  5-C ,  7-C ) :   0.0854 B(  5-C ,  8-C ) :   0.0703 
B(  5-C , 17-H ) :   0.8880 B(  6-C ,  7-C ) :   1.6095 B(  6-C ,  8-C ) :   0.0862 
B(  6-C , 18-H ) :   0.8880 B(  7-C ,  8-C ) :   1.3180 B(  7-C ,  9-C ) :   0.0819 
B(  7-C , 19-H ) :   0.8829 B(  8-C ,  9-C ) :   1.3125 B(  8-C , 10-C ) :   0.0867 
B(  9-C , 10-C ) :   1.5561 B(  9-C , 11-C ) :   0.0814 B(  9-C , 20-H ) :   0.8756 
B( 10-C , 11-C ) :   1.0983 B( 11-C , 21-H ) :   0.9206 B( 11-C , 22-H ) :   0.9292 
B( 11-C , 23-H ) :   0.9206 

------------------------------------------
LOEWDIN REDUCED ORBITAL POPULATIONS PER MO
-------------------------------------------
THRESHOLD FOR PRINTING IS 0.1%%
                      0         1         2         3         4         5   
                  -9.90005  -9.89997  -9.89728  -9.89718  -9.88822  -9.88811
                   2.00000   2.00000   2.00000   2.00000   2.00000   2.00000
                  --------  --------  --------  --------  --------  --------
 1 C  s              50.1      49.4       0.0       0.0       0.0       0.0
 3 C  s               0.0       0.0      50.6      48.9       0.0       0.0
 4 C  s               0.0       0.0       0.0       0.0      49.9      48.7
 5 C  s               0.0       0.0       0.0       0.0       0.4       0.6
 6 C  s               0.0       0.0       0.0       0.0       0.4       0.6
 7 C  s               0.0       0.0       0.0       0.0      48.8      49.7
 8 C  s               0.0       0.0      48.8      50.6       0.0       0.0
10 C  s              49.4      50.1       0.0       0.0       0.0       0.0

                      6         7         8         9        10        11   
                  -9.88650  -9.88642  -9.88634  -9.88629  -9.88492  -9.88483
                   2.00000   2.00000   2.00000   2.00000   2.00000   2.00000
                  --------  --------  --------  --------  --------  --------
 0 C  s               0.0       0.0       0.0       0.0      52.6      47.1
 2 C  s               0.2      49.6       0.9      48.9       0.0       0.0
 4 C  s               0.6       0.0       0.4       0.0       0.0       0.0
 5 C  s              49.3       0.8      48.4       0.1       0.0       0.0
 6 C  s              48.7       0.8      48.8       0.2       0.0       0.0
 7 C  s               0.6       0.0       0.4       0.0       0.0       0.0
 9 C  s               0.2      48.3       0.8      50.3       0.0       0.0
11 C  s               0.0       0.0       0.0       0.0      47.1      52.6

                     12        13        14        15        16        17   
                  -0.79291  -0.75142  -0.69856  -0.68814  -0.66485  -0.61367
                   2.00000   2.00000   2.00000   2.00000   2.00000   2.00000
                  --------  --------  --------  --------  --------  --------
 0 C  s               1.2       3.9       3.7       6.4       8.5       8.3
 0 C  px              0.5       0.8       0.5       0.1       0.3       0.8
 0 C  py              0.2       0.5       0.0       0.3       0.0       0.0
 1 C  s               7.4      11.1       4.2       2.6       3.1       1.6
 1 C  px              0.8       0.0       0.3       4.3       0.6       6.8
 1 C  py              0.3       0.5       4.6       0.1       3.3       0.9
 1 C  dz2             0.1       0.1       0.0       0.0       0.0       0.0
 2 C  s               7.9       2.2      11.0       1.7       0.4       2.0
 2 C  px              0.1       2.7       0.0       3.0       2.9       1.7
 2 C  py              1.7       0.4       0.0       0.3       0.0       0.3
 2 C  dz2             0.1       0.0       0.1       0.0       0.0       0.0
 3 C  s              13.7       1.2       4.9       6.3       1.8       2.9
 3 C  px              0.0       4.2       0.1       1.5       1.8       2.9
 3 C  py              0.6       0.1       5.3       0.6       1.8       0.4
 3 C  dz2             0.2       0.0       0.0       0.1       0.0       0.0
 3 C  dx2y2           0.0       0.0       0.1       0.0       0.0       0.1
 4 C  s               5.7       5.9       5.6       0.5      10.0       0.9
 4 C  px              0.4       0.4       0.4       4.9       0.0       3.3
 4 C  py              1.3       1.2       0.0       0.1       0.0       0.0
 4 C  dxy             0.0       0.0       0.0       0.1       0.0       0.1
 5 C  s               3.6       8.7       0.9       9.6       2.7       4.7
 5 C  px              1.0       0.9       0.5       0.0       1.1       1.4
 5 C  py              0.1       0.5       1.0       1.0       2.8       1.1
 5 C  dz2             0.0       0.1       0.0       0.1       0.0       0.0
 6 C  s               3.6       8.7       0.9       9.6       2.7       4.7
 6 C  px              1.0       0.9       0.5       0.0       1.1       1.4
 6 C  py              0.1       0.5       1.0       1.0       2.8       1.1
 6 C  dz2             0.0       0.1       0.0       0.1       0.0       0.0
 7 C  s               5.7       5.9       5.6       0.5      10.0       0.9
 7 C  px              0.4       0.4       0.4       4.9       0.0       3.3
 7 C  py              1.3       1.2       0.0       0.1       0.0       0.0
 7 C  dxy             0.0       0.0       0.0       0.1       0.0       0.1
 8 C  s              13.7       1.2       4.9       6.3       1.8       2.9
 8 C  px              0.0       4.2       0.1       1.5       1.8       2.9
 8 C  py              0.6       0.1       5.3       0.6       1.8       0.4
 8 C  dz2             0.2       0.0       0.0       0.1       0.0       0.0
 8 C  dx2y2           0.0       0.0       0.1       0.0       0.0       0.1
 9 C  s               7.9       2.2      11.0       1.7       0.4       2.0
 9 C  px              0.1       2.7       0.0       3.0       2.9       1.7
 9 C  py              1.7       0.4       0.0       0.3       0.0       0.3
 9 C  dz2             0.1       0.0       0.1       0.0       0.0       0.0
10 C  s               7.4      11.1       4.2       2.6       3.1       1.6
10 C  px              0.8       0.0       0.3       4.3       0.6       6.7
10 C  py              0.3       0.5       4.6       0.1       3.3       0.9
10 C  dz2             0.1       0.1       0.0       0.0       0.0       0.0
11 C  s               1.2       3.9       3.7       6.4       8.5       8.3
11 C  px              0.5       0.8       0.5       0.1       0.3       0.8
11 C  py              0.2       0.5       0.0       0.3       0.0       0.0
12 H  s               0.2       0.7       0.6       1.5       1.7       2.8
13 H  s               0.2       0.7       0.6       1.5       1.7       2.8
14 H  s               0.2       0.6       1.0       1.1       2.1       2.1
15 H  s               1.1       0.3       2.5       0.2       0.1       0.2
16 H  s               0.8       0.7       1.3       0.1       2.2       0.2
17 H  s               0.4       1.2       0.2       1.8       0.6       1.6
18 H  s               0.4       1.2       0.2       1.8       0.6       1.6
19 H  s               0.8       0.7       1.3       0.1       2.2       0.2
20 H  s               1.1       0.3       2.5       0.2       0.1       0.2
21 H  s               0.2       0.7       0.6       1.5       1.7       2.8
22 H  s               0.2       0.6       1.0       1.1       2.1       2.1
23 H  s               0.2       0.7       0.6       1.5       1.7       2.8

                     18        19        20        21        22        23   
                  -0.61168  -0.54108  -0.53448  -0.52607  -0.46417  -0.43389
                   2.00000   2.00000   2.00000   2.00000   2.00000   2.00000
                  --------  --------  --------  --------  --------  --------
 0 C  s               8.6       2.3       0.2       2.2       0.0       0.4
 0 C  px              0.3       0.8       0.4       2.3       1.9       5.4
 0 C  py              0.0       2.3       0.1       0.1       1.4       0.6
 1 C  s               0.0       4.3       0.1       2.3       0.1       3.0
 1 C  px              4.9       0.4       0.3       1.6       0.6       0.1
 1 C  py              0.0      10.3       0.9       1.6       5.2       1.7
 1 C  dx2y2           0.0       0.2       0.0       0.0       0.0       0.0
 1 C  dxy             0.2       0.0       0.0       0.2       0.0       0.0
 2 C  s               7.5       4.6       1.7       0.9       0.3       1.5
 2 C  px              0.3       1.0       0.4       7.3       5.8       6.2
 2 C  py              0.0       2.3       3.5       0.0       2.0       0.4
 2 C  dxy             0.0       0.1       0.1       0.1       0.1       0.1
 3 C  s               1.0       0.0       2.0       3.4       0.2       0.1
 3 C  px              3.3       4.5       0.8       0.4       4.2       5.1
 3 C  py              0.8       0.8      11.6       2.6       1.0       0.1
 3 C  dx2y2           0.0       0.0       0.1       0.0       0.0       0.0
 3 C  dxy             0.2       0.0       0.0       0.0       0.0       0.6
 4 C  s               3.4       1.4       6.5       0.1       0.4       2.8
 4 C  px              2.6       0.1       0.0       9.7       0.0       1.9
 4 C  py              0.0       0.1       4.6       0.0       8.2       0.5
 4 C  dx2y2           0.0       0.0       0.0       0.0       0.0       0.2
 4 C  dxy             0.0       0.0       0.0       0.1       0.0       0.0
 5 C  s               3.1       1.5       0.8       4.5       0.3       2.8
 5 C  px              0.4       3.0       2.0       0.2       6.1       3.1
 5 C  py              2.8       0.9       4.5       3.5       2.6       1.7
 5 C  dxy             0.0       0.0       0.0       0.0       0.0       0.2
 6 C  s               3.1       1.5       0.8       4.5       0.3       2.8
 6 C  px              0.4       3.0       2.0       0.2       6.1       3.0
 6 C  py              2.8       0.9       4.5       3.5       2.6       1.8
 6 C  dxy             0.0       0.0       0.0       0.0       0.0       0.2
 7 C  s               3.4       1.4       6.5       0.1       0.4       2.7
 7 C  px              2.6       0.1       0.0       9.7       0.0       2.0
 7 C  py              0.0       0.1       4.6       0.0       8.2       0.5
 7 C  dx2y2           0.0       0.0       0.0       0.0       0.0       0.2
 7 C  dxy             0.0       0.0       0.0       0.1       0.0       0.0
 8 C  s               1.0       0.0       2.0       3.4       0.2       0.1
 8 C  px              3.3       4.5       0.8       0.4       4.2       5.2
 8 C  py              0.8       0.8      11.6       2.6       1.0       0.1
 8 C  dx2y2           0.0       0.0       0.1       0.0       0.0       0.0
 8 C  dxy             0.2       0.0       0.0       0.0       0.0       0.6
 9 C  s               7.5       4.6       1.7       0.9       0.3       1.5
 9 C  px              0.3       1.0       0.4       7.3       5.8       6.1
 9 C  py              0.0       2.3       3.5       0.0       2.0       0.3
 9 C  dxy             0.0       0.1       0.1       0.1       0.1       0.1
10 C  s               0.0       4.3       0.1       2.3       0.1       3.0
10 C  px              4.9       0.4       0.3       1.6       0.6       0.2
10 C  py              0.0      10.3       0.9       1.6       5.2       1.7
10 C  dx2y2           0.0       0.2       0.0       0.0       0.0       0.0
10 C  dxy             0.2       0.0       0.0       0.2       0.0       0.0
11 C  s               8.6       2.3       0.2       2.2       0.0       0.4
11 C  px              0.3       0.8       0.4       2.3       1.9       5.5
11 C  py              0.0       2.3       0.1       0.1       1.4       0.7
12 H  s               2.3       0.8       0.2       1.3       0.5       1.0
13 H  s               2.3       0.8       0.2       1.3       0.5       1.0
14 H  s               2.2       2.3       0.0       0.7       0.4       0.5
15 H  s               1.8       3.5       2.6       0.2       1.1       1.2
16 H  s               0.8       0.2       5.7       0.0       3.5       2.0
17 H  s               1.0       1.2       0.3       3.0       3.5       5.6
18 H  s               1.0       1.2       0.3       3.0       3.5       5.5
19 H  s               0.8       0.2       5.7       0.0       3.5       1.9
20 H  s               1.8       3.5       2.6       0.2       1.1       1.2
21 H  s               2.3       0.8       0.2       1.3       0.5       1.0
22 H  s               2.2       2.3       0.0       0.7       0.4       0.5
23 H  s               2.3       0.8       0.2       1.3       0.5       1.0

                     24        25        26        27        28        29   
                  -0.43384  -0.39792  -0.39545  -0.39346  -0.37029  -0.36880
                   2.00000   2.00000   2.00000   2.00000   2.00000   2.00000
                  --------  --------  --------  --------  --------  --------
 0 C  s               0.4       0.0       0.0       0.0       0.1       0.0
 0 C  pz              0.0       0.0      21.4       0.0       0.0       0.0
 0 C  px              1.0       7.8       0.0       0.1       1.4       0.7
 0 C  py              5.0       1.6       0.0       1.4       6.4       2.4
 0 C  dxz             0.0       0.0       0.1       0.0       0.0       0.0
 0 C  dyz             0.0       0.0       0.1       0.0       0.0       0.0
 1 C  s               0.3       0.3       0.0       1.2       0.1       0.5
 1 C  pz              0.0       0.0      10.5       0.0       0.0       0.0
 1 C  px              6.2       0.6       0.0       0.0       5.4       0.2
 1 C  py              0.9       3.4       0.0       0.1       1.3       0.0
 1 C  dx2y2           0.0       0.0       0.0       0.3       0.0       0.3
 2 C  s               0.2       0.8       0.0       0.1       0.3       0.0
 2 C  pz              0.0       0.0       2.4       0.0       0.0       0.0
 2 C  px              2.1       2.2       0.0       0.1       0.4       0.3
 2 C  py              5.7       0.0       0.0      13.1       2.5       8.0
 2 C  dx2y2           0.0       0.0       0.0       0.3       0.1       0.1
 2 C  dxy             0.0       0.0       0.0       0.0       0.2       0.0
 3 C  s               0.2       0.9       0.0       2.9       0.1       0.0
 3 C  pz              0.0       0.0       1.2       0.0       0.0       0.0
 3 C  px              1.3       2.4       0.0       0.0       2.1       4.1
 3 C  py              4.4       3.2       0.0       0.3       5.4       0.0
 3 C  dx2y2           0.0       0.2       0.0       0.5       0.1       0.0
 4 C  s               0.5       0.0       0.0       0.1       0.2       0.1
 4 C  pz              0.0       0.0       0.2       0.0       0.0       0.0
 4 C  px              6.7       1.5       0.0       0.1       8.3       0.0
 4 C  py              0.4       1.2       0.0      10.6       0.2      14.7
 4 C  dx2y2           0.0       0.0       0.0       0.3       0.0       0.1
 4 C  dxy             0.0       0.3       0.0       0.0       0.0       0.0
 5 C  s               0.0       0.2       0.0       0.6       0.0       0.3
 5 C  px              2.4      10.5       0.0       0.1       1.3       2.4
 5 C  py              6.1       2.0       0.0       0.0       8.2       0.1
 5 C  dx2y2           0.0       0.0       0.0       0.2       0.0       0.2
 6 C  s               0.1       0.2       0.0       0.6       0.0       0.3
 6 C  px              2.5      10.5       0.0       0.1       1.3       2.4
 6 C  py              6.0       2.0       0.0       0.0       8.2       0.1
 6 C  dx2y2           0.0       0.0       0.0       0.2       0.0       0.2
 7 C  s               0.5       0.0       0.0       0.1       0.2       0.1
 7 C  pz              0.0       0.0       0.2       0.0       0.0       0.0
 7 C  px              6.6       1.5       0.0       0.1       8.3       0.0
 7 C  py              0.5       1.2       0.0      10.6       0.2      14.7
 7 C  dx2y2           0.0       0.0       0.0       0.3       0.0       0.1
 7 C  dxy             0.0       0.3       0.0       0.0       0.0       0.0
 8 C  s               0.2       0.9       0.0       2.9       0.1       0.0
 8 C  pz              0.0       0.0       1.2       0.0       0.0       0.0
 8 C  px              1.2       2.4       0.0       0.0       2.1       4.1
 8 C  py              4.5       3.2       0.0       0.3       5.4       0.0
 8 C  dx2y2           0.0       0.2       0.0       0.5       0.1       0.0
 9 C  s               0.2       0.8       0.0       0.1       0.3       0.0
 9 C  pz              0.0       0.0       2.4       0.0       0.0       0.0
 9 C  px              2.2       2.2       0.0       0.1       0.4       0.3
 9 C  py              5.7       0.0       0.0      13.1       2.5       8.0
 9 C  dx2y2           0.0       0.0       0.0       0.3       0.1       0.1
 9 C  dxy             0.0       0.0       0.0       0.0       0.2       0.0
10 C  s               0.3       0.3       0.0       1.2       0.1       0.5
10 C  pz              0.0       0.0      10.5       0.0       0.0       0.0
10 C  px              6.2       0.6       0.0       0.0       5.4       0.2
10 C  py              1.0       3.4       0.0       0.1       1.3       0.0
10 C  dx2y2           0.0       0.0       0.0       0.3       0.0       0.3
11 C  s               0.4       0.0       0.0       0.0       0.1       0.0
11 C  pz              0.0       0.0      21.4       0.0       0.0       0.0
11 C  px              1.0       7.8       0.0       0.1       1.4       0.7
11 C  py              4.9       1.6       0.0       1.4       6.4       2.4
11 C  dxz             0.0       0.0       0.1       0.0       0.0       0.0
11 C  dyz             0.0       0.0       0.1       0.0       0.0       0.0
12 H  s               0.2       1.8       6.9       0.0       0.0       0.4
13 H  s               0.2       1.7       7.0       0.0       0.0       0.4
14 H  s               2.3       1.0       0.0       0.8       2.8       1.6
15 H  s               2.4       0.1       0.0       9.0       2.1       4.4
16 H  s               0.6       0.6       0.0       7.3       0.3       7.7
17 H  s               0.1       5.3       0.0       0.3       0.1       0.6
18 H  s               0.1       5.3       0.0       0.3       0.1       0.6
19 H  s               0.6       0.6       0.0       7.3       0.3       7.7
20 H  s               2.5       0.1       0.0       9.0       2.0       4.4
21 H  s               0.2       1.8       6.9       0.0       0.0       0.4
22 H  s               2.2       1.0       0.0       0.8       2.8       1.6
23 H  s               0.2       1.7       7.0       0.0       0.0       0.4

                     30        31        32        33        34        35   
                  -0.36001  -0.34521  -0.34491  -0.34030  -0.33789  -0.31332
                   2.00000   2.00000   2.00000   2.00000   2.00000   2.00000
                  --------  --------  --------  --------  --------  --------
 0 C  s               0.0       0.1       0.0       0.1       0.0       0.0
 0 C  pz             28.3       0.0       2.7       0.0       0.0       0.0
 0 C  px              0.0       0.2       0.0       9.6      10.9       0.4
 0 C  py              0.0      20.6       0.0       3.7       1.8       5.8
 0 C  dz2             0.0       0.0       0.0       0.1       0.1       0.0
 0 C  dxz             0.3       0.0       0.1       0.0       0.0       0.0
 0 C  dx2y2           0.0       0.2       0.0       0.1       0.1       0.2
 1 C  s               0.0       0.3       0.0       0.0       0.1       0.1
 1 C  pz              2.7       0.0       0.7       0.0       0.0       0.0
 1 C  px              0.0       5.9       0.0       4.9       3.1       0.0
 1 C  py              0.0       0.0       0.0       0.1       0.2      11.6
 1 C  dyz             0.1       0.0       0.0       0.0       0.0       0.0
 1 C  dx2y2           0.0       0.0       0.0       0.0       0.0       0.5
 1 C  dxy             0.0       0.1       0.0       0.1       0.4       0.0
 2 C  s               0.0       0.1       0.0       0.2       1.1       0.0
 2 C  pz              0.6       0.0       5.7       0.0       0.0       0.0
 2 C  px              0.0       0.4       0.0       5.7       0.8       1.4
 2 C  py              0.0       4.9       0.0       0.8       0.1       2.0
 2 C  dx2y2           0.0       0.0       0.0       0.1       0.1       0.2
 2 C  dxy             0.0       0.0       0.0       0.2       0.0       0.0
 3 C  s               0.0       0.0       0.0       0.0       0.5       0.0
 3 C  pz              0.0       0.0      19.6       0.0       0.0       0.0
 3 C  px              0.0       0.4       0.0       5.5       0.2       0.6
 3 C  py              0.0       0.1       0.0       1.0       0.6       0.6
 3 C  dxy             0.0       0.0       0.0       0.0       0.0       0.1
 4 C  s               0.0       0.1       0.0       0.0       0.5       0.1
 4 C  pz              0.0       0.0      10.7       0.0       0.0       0.0
 4 C  px              0.0       0.4       0.0       0.7       4.1       0.2
 4 C  py              0.0       0.1       0.0       0.3       0.5       4.2
 4 C  dx2y2           0.0       0.0       0.0       0.0       0.0       0.4
 4 C  dxy             0.0       0.0       0.0       0.2       0.1       0.0
 5 C  s               0.0       0.1       0.0       0.2       0.1       0.0
 5 C  pz              0.0       0.0       7.7       0.0       0.0       0.0
 5 C  px              0.0       0.6       0.0       2.3       9.2       0.1
 5 C  py              0.0       0.0       0.0       1.7       0.2       8.5
 5 C  dx2y2           0.0       0.0       0.0       0.1       0.0       0.3
 5 C  dxy             0.0       0.1       0.0       0.0       0.7       0.0
 6 C  s               0.0       0.1       0.0       0.2       0.1       0.0
 6 C  pz              0.0       0.0       7.7       0.0       0.0       0.0
 6 C  px              0.0       0.6       0.0       2.3       9.2       0.1
 6 C  py              0.0       0.0       0.0       1.7       0.2       8.5
 6 C  dx2y2           0.0       0.0       0.0       0.1       0.0       0.3
 6 C  dxy             0.0       0.1       0.0       0.0       0.7       0.0
 7 C  s               0.0       0.1       0.0       0.0       0.5       0.1
 7 C  pz              0.0       0.0      10.7       0.0       0.0       0.0
 7 C  px              0.0       0.4       0.0       0.7       4.1       0.2
 7 C  py              0.0       0.1       0.0       0.3       0.5       4.2
 7 C  dx2y2           0.0       0.0       0.0       0.0       0.0       0.4
 7 C  dxy             0.0       0.0       0.0       0.2       0.1       0.0
 8 C  s               0.0       0.0       0.0       0.0       0.5       0.0
 8 C  pz              0.0       0.0      19.6       0.0       0.0       0.0
 8 C  px              0.0       0.4       0.0       5.5       0.2       0.6
 8 C  py              0.0       0.1       0.0       1.0       0.6       0.6
 8 C  dxy             0.0       0.0       0.0       0.0       0.0       0.1
 9 C  s               0.0       0.1       0.0       0.2       1.1       0.0
 9 C  pz              0.6       0.0       5.7       0.0       0.0       0.0
 9 C  px              0.0       0.4       0.0       5.7       0.8       1.4
 9 C  py              0.0       4.9       0.0       0.8       0.1       2.0
 9 C  dx2y2           0.0       0.0       0.0       0.1       0.1       0.2
 9 C  dxy             0.0       0.0       0.0       0.2       0.0       0.0
10 C  s               0.0       0.3       0.0       0.0       0.1       0.1
10 C  pz              2.7       0.0       0.7       0.0       0.0       0.0
10 C  px              0.0       5.9       0.0       4.9       3.1       0.0
10 C  py              0.0       0.0       0.0       0.1       0.2      11.6
10 C  dyz             0.1       0.0       0.0       0.0       0.0       0.0
10 C  dx2y2           0.0       0.0       0.0       0.0       0.0       0.5
10 C  dxy             0.0       0.1       0.0       0.1       0.4       0.0
11 C  s               0.0       0.1       0.0       0.1       0.0       0.0
11 C  pz             28.3       0.0       2.7       0.0       0.0       0.0
11 C  px              0.0       0.1       0.0       9.6      10.9       0.4
11 C  py              0.0      20.6       0.0       3.7       1.8       5.8
11 C  dz2             0.0       0.0       0.0       0.1       0.1       0.0
11 C  dxz             0.3       0.0       0.1       0.0       0.0       0.0
11 C  dx2y2           0.0       0.2       0.0       0.1       0.1       0.2
12 H  s               8.9       0.5       1.2       2.7       2.4       0.1
13 H  s               8.9       0.5       1.2       2.7       2.4       0.1
14 H  s               0.0      10.9       0.0       3.9       2.2       4.0
15 H  s               0.0       2.2       0.0       0.8       0.2       1.9
16 H  s               0.0       0.2       0.0       0.1       0.0       4.2
17 H  s               0.0       0.7       0.0       2.0       7.1       2.1
18 H  s               0.0       0.7       0.0       2.0       7.1       2.1
19 H  s               0.0       0.2       0.0       0.1       0.0       4.2
20 H  s               0.0       2.2       0.0       0.8       0.2       1.9
21 H  s               8.9       0.5       1.2       2.7       2.4       0.1
22 H  s               0.0      10.9       0.0       3.9       2.2       4.0
23 H  s               8.9       0.5       1.2       2.7       2.4       0.1

                     36        37        38        39        40        41   
                  -0.28817  -0.28388  -0.28152  -0.25308  -0.21266  -0.19029
                   2.00000   2.00000   2.00000   2.00000   2.00000   2.00000
                  --------  --------  --------  --------  --------  --------
 0 C  s               0.2       0.1       0.0       0.0       0.0       0.0
 0 C  pz              0.0       0.0       2.2       0.4       0.9       0.3
 0 C  px              7.2       0.8       0.0       0.0       0.0       0.0
 0 C  py              0.1       1.0       0.0       0.0       0.0       0.0
 0 C  dxz             0.0       0.0       0.2       0.1       0.3       0.2
 1 C  pz              0.0       0.0       9.8       2.0      16.2       6.2
 1 C  px              5.9       0.0       0.0       0.0       0.0       0.0
 1 C  py              0.0       5.8       0.0       0.0       0.0       0.0
 1 C  dxz             0.0       0.0       0.1       0.1       0.0       0.2
 1 C  dyz             0.0       0.0       0.0       0.1       0.2       0.2
 1 C  dx2y2           0.0       0.3       0.0       0.0       0.0       0.0
 1 C  dxy             0.6       0.0       0.0       0.0       0.0       0.0
 2 C  s               0.0       0.2       0.0       0.0       0.0       0.0
 2 C  pz              0.0       0.0       9.1      14.8       0.2      17.6
 2 C  px              8.4       0.2       0.0       0.0       0.0       0.0
 2 C  py              0.1       4.7       0.0       0.0       0.0       0.0
 2 C  dxz             0.0       0.0       0.0       0.0       0.5       0.1
 2 C  dx2y2           0.0       0.8       0.0       0.0       0.0       0.0
 2 C  dxy             0.2       0.0       0.0       0.0       0.0       0.0
 3 C  pz              0.0       0.0       1.0      11.1      15.1       0.0
 3 C  px              7.0       0.0       0.0       0.0       0.0       0.0
 3 C  py              0.0      11.9       0.0       0.0       0.0       0.0
 3 C  dxz             0.0       0.0       0.2       0.0       0.0       0.5
 3 C  dyz             0.0       0.0       0.0       0.4       0.1       0.0
 3 C  dx2y2           0.0       0.6       0.0       0.0       0.0       0.0
 3 C  dxy             0.7       0.0       0.0       0.0       0.0       0.0
 4 C  s               0.0       0.2       0.0       0.0       0.0       0.0
 4 C  pz              0.0       0.0       5.6      16.9       0.1      16.0
 4 C  px              7.5       0.3       0.0       0.0       0.0       0.0
 4 C  py              0.1       4.4       0.0       0.0       0.0       0.0
 4 C  dxz             0.0       0.0       0.2       0.0       0.4       0.1
 4 C  dx2y2           0.0       0.7       0.0       0.0       0.0       0.0
[...]
18 H  s               0.0       0.6       0.1       0.0       0.1       0.0
19 H  s               0.0       0.0       0.2       0.0       0.0       0.0
20 H  s               0.0       0.1       0.2       0.0       0.0       0.0
22 H  s               0.0       0.0       0.0       0.0       0.1       0.0

                    186       187       188       189       190       191   
                   2.76830   2.81783   2.88606   2.97406   3.27721   3.40236
                   0.00000   0.00000   0.00000   0.00000   0.00000   0.00000
                  --------  --------  --------  --------  --------  --------
 0 C  px              0.0       0.1       0.1       0.0       0.2       0.1
 0 C  py              0.1       0.0       0.0       0.2       0.0       0.1
 0 C  dx2y2           0.6       0.1       2.1       0.7       0.4       0.0
 0 C  dxy             1.3       0.3       0.0       1.0       0.2       0.4
 1 C  s               0.4       0.6       0.1       0.0       0.4       0.2
 1 C  px              0.0       1.4       0.2       0.2       0.3       0.0
 1 C  py              0.1       0.3       0.5       1.9       0.0       0.1
 1 C  dz2             0.1       0.1       0.1       0.1       0.1       0.1
 1 C  dx2y2           6.6       0.0       3.2      17.0       0.2       2.9
 1 C  dxy             0.2       2.8      12.7       0.1       7.7       4.6
 2 C  s               0.6       0.3       1.1       0.0       0.1       0.7
 2 C  px              1.3       1.1       0.7       1.2       0.8       0.2
 2 C  py              0.0       0.0       0.5       0.0       0.0       0.1
 2 C  dz2             0.4       0.3       0.4       0.1       0.2       0.2
 2 C  dx2y2           8.0       6.7       0.2       0.7       4.8       7.4
 2 C  dxy             7.4       7.1       0.2       8.5       1.8       0.4
 3 C  s               0.1       0.7       0.1       1.2       0.6       0.0
 3 C  px              3.4       0.0       0.4       0.1       0.0       0.5
 3 C  py              0.0       0.2       0.9       1.2       0.6       0.0
 3 C  dz2             0.0       0.1       0.2       0.7       0.4       0.0
 3 C  dx2y2           0.1      11.6       4.7       3.5      13.5       0.0
 3 C  dxy             7.5       0.0       0.4       0.0       0.1      17.1
 4 C  s               0.3       0.1       0.0       0.4       0.3       0.8
 4 C  px              0.8       0.8       1.9       0.1       0.6       0.2
 4 C  py              0.0       0.0       0.0       0.1       0.0       0.1
 4 C  dz2             0.2       0.1       0.0       0.4       0.2       0.2
 4 C  dx2y2           4.2       4.8       0.0       1.5       6.0       6.3
 4 C  dxy             2.6       6.6       7.9       1.8       1.5       0.4
 5 C  s               0.2       0.6       0.0       0.4       0.8       0.5
 5 C  px              0.0       0.7       0.6       0.0       0.2       0.0
 5 C  py              0.2       0.3       1.7       0.3       0.0       0.1
 5 C  dz2             0.0       0.1       0.0       0.5       0.4       0.2
 5 C  dx2y2           2.1       0.0       6.8       2.9       0.7       2.2
 5 C  dxy             0.1       1.3       1.9       2.6       6.1       3.0
 6 C  s               0.2       0.6       0.0       0.4       0.8       0.5
 6 C  px              0.0       0.7       0.6       0.0       0.2       0.0
 6 C  py              0.2       0.3       1.7       0.3       0.0       0.1
 6 C  dz2             0.0       0.1       0.0       0.5       0.4       0.2
 6 C  dx2y2           2.1       0.0       6.8       2.9       0.7       2.2
 6 C  dxy             0.1       1.3       1.9       2.6       6.1       3.0
 7 C  s               0.3       0.1       0.0       0.4       0.3       0.8
 7 C  px              0.8       0.8       1.9       0.1       0.6       0.2
 7 C  py              0.0       0.0       0.0       0.1       0.0       0.1
 7 C  dz2             0.2       0.1       0.0       0.4       0.2       0.2
 7 C  dx2y2           4.2       4.8       0.0       1.5       6.0       6.3
 7 C  dxy             2.6       6.6       7.9       1.8       1.5       0.4
 8 C  s               0.1       0.7       0.1       1.2       0.6       0.0
 8 C  px              3.4       0.0       0.4       0.1       0.0       0.5
 8 C  py              0.0       0.2       0.9       1.2       0.6       0.0
 8 C  dz2             0.0       0.1       0.2       0.7       0.4       0.0
 8 C  dx2y2           0.1      11.6       4.7       3.5      13.5       0.0
 8 C  dxy             7.5       0.0       0.4       0.0       0.1      17.1
 9 C  s               0.6       0.3       1.1       0.0       0.1       0.7
 9 C  px              1.3       1.1       0.7       1.2       0.8       0.2
 9 C  py              0.0       0.0       0.5       0.0       0.0       0.1
 9 C  dz2             0.4       0.3       0.4       0.1       0.2       0.2
 9 C  dx2y2           8.0       6.7       0.2       0.7       4.8       7.4
 9 C  dxy             7.4       7.1       0.2       8.5       1.8       0.4
10 C  s               0.4       0.6       0.1       0.0       0.4       0.2
10 C  px              0.0       1.4       0.2       0.2       0.3       0.0
10 C  py              0.1       0.3       0.5       1.9       0.0       0.1
10 C  dz2             0.1       0.1       0.1       0.1       0.1       0.1
10 C  dx2y2           6.6       0.0       3.2      17.0       0.2       2.9
10 C  dxy             0.2       2.8      12.7       0.1       7.7       4.6
11 C  px              0.0       0.1       0.1       0.0       0.2       0.1
11 C  py              0.1       0.0       0.0       0.2       0.0       0.1
11 C  dx2y2           0.6       0.1       2.1       0.7       0.4       0.0
11 C  dxy             1.3       0.3       0.0       1.0       0.2       0.4
15 H  s               0.3       0.2       0.0       0.0       0.1       0.3
16 H  s               0.2       0.2       0.0       0.1       0.2       0.3
17 H  s               0.1       0.1       0.0       0.2       0.3       0.2
18 H  s               0.1       0.1       0.0       0.2       0.3       0.2
19 H  s               0.2       0.2       0.0       0.1       0.2       0.3
20 H  s               0.3       0.2       0.0       0.0       0.1       0.3



                      *****************************
                      * MAYER POPULATION ANALYSIS *
                      *****************************

  NA   - Mulliken gross atomic population
  ZA   - Total nuclear charge
  QA   - Mulliken gross atomic charge
  VA   - Mayer's total valence
  BVA  - Mayer's bonded valence
  FA   - Mayer's free valence

  ATOM       NA         ZA         QA         VA         BVA        FA
  0 C      6.2042     6.0000    -0.2042     3.9359     3.9359    -0.0000
  1 C      5.9850     6.0000     0.0150     4.0508     4.0508     0.0000
  2 C      6.2399     6.0000    -0.2399     3.7695     3.7695    -0.0000
  3 C      5.8268     6.0000     0.1732     3.7995     3.7995    -0.0000
  4 C      6.1287     6.0000    -0.1287     3.7665     3.7665    -0.0000
  5 C      6.0425     6.0000    -0.0425     3.7962     3.7962    -0.0000
  6 C      6.0425     6.0000    -0.0425     3.7963     3.7963     0.0000
  7 C      6.1287     6.0000    -0.1287     3.7665     3.7665     0.0000
  8 C      5.8268     6.0000     0.1732     3.7995     3.7995     0.0000
  9 C      6.2399     6.0000    -0.2399     3.7695     3.7695     0.0000
 10 C      5.9850     6.0000     0.0150     4.0508     4.0508     0.0000
 11 C      6.2042     6.0000    -0.2042     3.9359     3.9359     0.0000
 12 H      0.8905     1.0000     0.1095     0.9561     0.9561     0.0000
 13 H      0.8904     1.0000     0.1096     0.9561     0.9561     0.0000
 14 H      0.8969     1.0000     0.1031     0.9656     0.9656    -0.0000
 15 H      0.9799     1.0000     0.0201     0.9692     0.9692    -0.0000
 16 H      0.9648     1.0000     0.0352     0.9573     0.9573    -0.0000
 17 H      0.9504     1.0000     0.0496     0.9493     0.9493    -0.0000
 18 H      0.9504     1.0000     0.0496     0.9493     0.9493    -0.0000
 19 H      0.9648     1.0000     0.0352     0.9573     0.9573    -0.0000
 20 H      0.9799     1.0000     0.0201     0.9692     0.9692     0.0000
 21 H      0.8905     1.0000     0.1095     0.9562     0.9562     0.0000
 22 H      0.8969     1.0000     0.1031     0.9657     0.9657    -0.0000
 23 H      0.8904     1.0000     0.1096     0.9561     0.9561     0.0000

  Mayer bond orders larger than 0.100000
B(  0-C ,  1-C ) :   1.1439 B(  0-C , 12-H ) :   0.9215 B(  0-C , 13-H ) :   0.9215 
B(  0-C , 14-H ) :   0.9370 B(  1-C ,  2-C ) :   1.4637 B(  1-C , 10-C ) :   1.2802 
B(  2-C ,  3-C ) :   1.2100 B(  2-C ,  9-C ) :   0.1010 B(  2-C , 15-H ) :   0.9614 
B(  3-C ,  4-C ) :   1.2409 B(  3-C ,  8-C ) :   1.2535 B(  4-C ,  5-C ) :   1.4550 
B(  4-C , 16-H ) :   0.9645 B(  5-C ,  6-C ) :   1.2608 B(  5-C , 17-H ) :   0.9617 
B(  6-C ,  7-C ) :   1.4551 B(  6-C , 18-H ) :   0.9617 B(  7-C ,  8-C ) :   1.2409 
B(  7-C , 19-H ) :   0.9645 B(  8-C ,  9-C ) :   1.2100 B(  9-C , 10-C ) :   1.4637 
B(  9-C , 20-H ) :   0.9614 B( 10-C , 11-C ) :   1.1439 B( 11-C , 21-H ) :   0.9215 
B( 11-C , 22-H ) :   0.9370 B( 11-C , 23-H ) :   0.9215 

-------
TIMINGS
-------

Total SCF time: 0 days 0 hours 0 min 8 sec 

Total time                  ....       8.583 sec
Sum of individual times     ....       8.228 sec  ( 95.9%)

SCF preparation             ....       0.153 sec  (  1.8%)
Fock matrix formation       ....       7.365 sec  ( 85.8%)
  Startup                   ....       0.045 sec  (  0.6% of F)
  Split-RI-J                ....       3.226 sec  ( 43.8% of F)
  XC integration            ....       3.710 sec  ( 50.4% of F)
    Basis function eval.    ....       1.219 sec  ( 32.9% of XC)
    Density eval.           ....       0.663 sec  ( 17.9% of XC)
    XC-Functional eval.     ....       0.251 sec  (  6.8% of XC)
    XC-Potential eval.      ....       0.967 sec  ( 26.1% of XC)
Diagonalization             ....       0.000 sec  (  0.0%)
Density matrix formation    ....       0.160 sec  (  1.9%)
Total Energy calculation    ....       0.024 sec  (  0.3%)
Population analysis         ....       0.086 sec  (  1.0%)
Orbital Transformation      ....       0.049 sec  (  0.6%)
Orbital Orthonormalization  ....       0.000 sec  (  0.0%)
DIIS solution               ....       0.304 sec  (  3.5%)
  MO trafo                  ....       0.000 sec  (  0.0 % of DIIS)
  Orb grad                  ....       0.000 sec  (  0.0 % of DIIS)
  Energy W gradient         ....       0.000 sec  (  0.0 % of DIIS)
  DIIS error                ....       0.005 sec  (  1.6 % of DIIS)
  DIIS work                 ....       0.259 sec  ( 85.3 % of DIIS)
  Form Q                    ....       0.000 sec  (  0.0 % of DIIS)
  Form QpQm                 ....       0.000 sec  (  0.0 % of DIIS)
  Exp/Cayley                ....       0.000 sec  (  0.0 % of DIIS)
  Orb update                ....       0.000 sec  (  0.0 % of DIIS)
  Wake-sleep                ....       0.012 sec  (  3.9 % of DIIS)
SOSCF solution              ....       0.088 sec  (  1.0%)
  MO trafo                  ....       0.050 sec  ( 56.9 % of SOSCF)
  Orb grad                  ....       0.001 sec  (  1.3 % of SOSCF)
  Rot update                ....       0.017 sec  ( 19.6 % of SOSCF)
  Step                      ....       0.019 sec  ( 22.1 % of SOSCF)
Finished LeanSCF after   8.6 sec

Maximum memory used throughout the entire LEANSCF-calculation: 18.5 MB


-------------------------------------------------------------------------------
                          DFT DISPERSION CORRECTION                            
                                                                               
                                DFTD4 V3.4.0                                   
-------------------------------------------------------------------------------
The PBE functional is recognized
Active option DFTDOPT                   ...         5   

-------------------------   ----------------
Dispersion correction           -0.029210233
-------------------------   ----------------

------------------   -----------------
gCP correction             0.089239482
------------------   -----------------

-------------------------   --------------------
FINAL SINGLE POINT ENERGY      -463.487794291192
-------------------------   --------------------


------------------------------------------------------------------------------
                              ORCA PROPERTY CALCULATIONS
------------------------------------------------------------------------------

GBWName                                 ... sp.gbw
Number of atoms                         ...     24
Number of basis functions               ...    192
Max core memory                         ...   1024 MB

Electric properties:
Dipole moment                           ... YES
Quadrupole moment                       ...  NO
Static polarizability (Dipole/Dipole)   ...  NO
Static polarizability (Dipole/Quad.)    ...  NO
Static polarizability (Quad./Quad.)     ...  NO
Static polarizability (Velocity)        ...  NO

Atomic electric properties:
Dipole moment                           ...  NO
Quadrupole moment                       ...  NO
Static polarizability                   ...  NO

Choice of electric origin               ... Center of mass
Position of electric origin             ...    -0.000011     0.000000    -0.000000

General magnetic properties:
Magnetizability                         ...  NO

EPR properties:
g-Tensor (aka g-matrix)                 ...  NO
Zero-Field splitting spin-orbit         ...  NO
Zero-field splitting spin-spin          ...  NO
Hyperfine couplings                     ...  NO (   0 nuclei)
Quadrupole couplings                    ...  NO (   0 nuclei)
Contact density                         ...  NO (   0 nuclei)

NMR properties:
Chemical shifts                         ...  NO (   0 nuclei)
Spin-rotation constants                 ...  NO (   0 nuclei)
Spin-spin couplings                     ...  NO (   0 nuclei,    0 pairs)

Choice of magnetic origin               ... GIAO
Position of magnetic origin             ...     0.000000     0.000000     0.000000

Properties with geometric perturbations:
SCF Hessian                             ...  NO
IR spectrum                             ...  NO
VCD spectrum                            ...  NO
X-ray spectroscopy properties:
SCF XES/XAS/RIXS spectra                ...  NO


-------------
DIPOLE MOMENT
-------------

Method             : SCF
Type of density    : Electron Density
Multiplicity       :   1
Irrep              :   0
Energy             :  -463.5478235403692224 Eh
Relativity type    : 
Basis              : AO
                                X                 Y                 Z
Electronic contribution:      8.420096456      -0.000408923       0.002881117
Nuclear contribution   :     -8.795748927       0.000441080      -0.003362128
                        -----------------------------------------
Total Dipole Moment    :     -0.375652472       0.000032157      -0.000481011
                        -----------------------------------------
Magnitude (a.u.)       :      0.375652781
Magnitude (Debye)      :      0.954833488



--------------------
Rotational spectrum 
--------------------
 
Rotational constants in cm-1:             0.073601             0.022565             0.017381 
Rotational constants in MHz :          2206.498930           676.480981           521.077964 

Dipole components along the rotational axes: 
x,y,z [a.u.] :    -0.375652    -0.000032    -0.000481 
x,y,z [Debye]:    -0.954833    -0.000082    -0.001223 

 

Dipole moment calculation done in   0.0 sec 

Maximum memory used throughout the entire PROP-calculation: 11.9 MB

--------------------------------
SUGGESTED CITATIONS FOR THIS RUN
--------------------------------

Below you find a list of papers that are relevant to this ORCA run
We neither can nor want to force you to cite these papers, but we appreciate if you do
You receive ORCA, which is the product of decades of hard work by many enthusiastic individuals, for free
The only thing we kindly ask in return is that you cite our papers,
We deeply appreciate it, if you show your appreciation for ORCA by not just citing the generic ORCA reference.

Please note that relegating all ORCA citations to the supporting information does *not* help us.
SI sections are not indexed - citations you put there will not count into any citation statistics
But we need these citations in order to attract the funding resources that allow us to do what we are doing

Therefore, if you are a happy ORCA user, please consider citing a few of the papers listed below in the main body of your paper

In addition to the list printed below, the program has created the file sp.bibtex that contains the list in bibtex format
You can import this file easily into all common literature databanks and citation aid programs


List of essential papers. We consider these as the minimum necessary citations

  1. Neese,F.
     Software update: the ORCA program system, version 5.0
     WIRES Comput. Molec. Sci., 2022 12(1)e1606
     doi.org/10.1002/wcms.1606

List of papers to cite with high priority. The work reported in these papers was absolutely
necessary for this run to complete.
Our perspective: the developers of density functionals and basis sets usually get cited in chemistry papers
Good! But without the algorithms to do something with them, the functionals or basis sets would not do anything.
Hence, in our opinion, the algorithm design and method developments papers are equally worthy of getting cited

  1. Neese,F.
     An improvement of the resolution of the identity approximation for the formation of the Coulomb matrix
     J. Comp. Chem., 2003 24(14)1740-1747
     doi.org/10.1002/jcc.10318
  2. Neese,F.
     The SHARK Integral Generation and Digestion System
     J. Comp. Chem., 2022  1-16
     doi.org/10.1002/jcc.26942
  3. Caldeweyher,E.; Bannwarth,C.; Grimme,S.
     Extension of the D3 dispersion coefficient model
     J. Chem. Phys., 2017 147 034112-XXXX
     doi.org/10.1063/1.4993215
  4. Caldeweyher,E.; Ehlert,S.; Hansen,A.; Neugebauer,H.; Spicher,S.; Bannwarth,C.; Grimme,S.
     A generally applicable atomic-charge dependent London dispersion correction
     J. Chem. Phys., 2019 150 154122-XXXX
     doi.org/10.1063/1.5090222
  5. Caldeweyher,E.; Mewes,J.; Ehlert,S.; Grimme,S.
     Extension and evaluation of the D4 London-dispersion model for periodic systems
     Phys. Chem. Chem. Phys., 2020 22(16)8499-8512
     doi.org/10.1039/D0CP00502A

List of suggested additional citations. These are papers that are important in the 'surrounding' of 
of this run, or papers that preceded the highly important papers. If you like your results we are grateful for a citation.

  1. Neese,F.
     The ORCA program system
     WIRES Comput. Molec. Sci., 2012 2(1)73-78
     doi.org/10.1002/wcms.81
  2. Neese,F.
     Software update: the ORCA program system, version 4.0
     WIRES Comput. Molec. Sci., 2018 8(1)1-6
     doi.org/10.1002/wcms.1327
  3. Neese,F.; Wennmohs,F.; Becker,U.; Riplinger,C.
     The ORCA quantum chemistry program package
     J. Chem. Phys., 2020 152 Art. No. L224108
     doi.org/10.1063/5.0004608

List of optional additional citations

  1. Neese,F.
     Approximate second-order SCF convergence for spin unrestricted wavefunctions
     Chem. Phys. Lett., 2000 325(1-3)93-98
     doi.org/10.1016/s0009-2614(00)00662-x

Timings for individual modules:

Sum of individual times          ...       10.458 sec (=   0.174 min)
Startup calculation              ...        0.796 sec (=   0.013 min)   7.6 %
SCF iterations                   ...        9.576 sec (=   0.160 min)  91.6 %
Property calculations            ...        0.086 sec (=   0.001 min)   0.8 %
                             ****ORCA TERMINATED NORMALLY****
TOTAL RUN TIME: 0 days 0 hours 0 minutes 11 seconds 94 msec
