19
 energy: -386.010304043332 gnorm: 0.024284514346 xtb: 6.7.1 (edcfbbe)
C           -2.97545861651850        0.63950428418338       -0.75209921863328
C           -2.26775741280490        0.36008341675956        0.57582394125516
C           -0.85221399997764       -0.08023895643556        0.33339131584773
C           -0.55068486874402       -1.42356070903082        0.13938013356176
C            0.74784133283139       -1.81697787970515       -0.12522641275549
C            1.76456115708192       -0.88159796309066       -0.20288670798990
C            1.47369349515303        0.46362842190545       -0.01275025850565
C            0.16617612967364        0.85567759287917        0.25336070861227
O            2.42955286057660        1.43279317013491       -0.07545481293344
H           -2.45411453758748        1.42163551912996       -1.29899886787562
H           -3.99929400747219        0.95950525082518       -0.57628574285537
H           -2.99026924922507       -0.25662547841372       -1.36802606880621
H           -2.80887116664469       -0.41955591048592        1.11477973279399
H           -2.27311599180728        1.26626522256112        1.18371285462453
H           -1.33663844439230       -2.16149014985781        0.19907379908821
H            0.97570029713236       -2.86211446786828       -0.27234237592068
H            2.77783069453093       -1.19518618982962       -0.40860274228106
H           -0.03493905051548        1.90640131424478        0.39856591567662
H            3.29576784346044        1.04219551336182       -0.26465278321727
19
 energy: -386.011190239748 gnorm: 0.010067598333 xtb: 6.7.1 (edcfbbe)
C           -2.98473573909554        0.64304261539281       -0.75460059941529
C           -2.27029003561643        0.36253966701132        0.57283910581155
C           -0.85103913665960       -0.08101213173291        0.34511830274773
C           -0.55141769074587       -1.43114915311709        0.14577455128189
C            0.75328917682551       -1.82450022614607       -0.12718762185526
C            1.77638503938816       -0.88635250586571       -0.20638252554676
C            1.47899109962095        0.46170047934250       -0.01328680206436
C            0.17132811716551        0.86054533454740        0.26035084237593
O            2.43716196030258        1.43856079785122       -0.07559322769074
H           -2.46513731910094        1.42936288356619       -1.30877918477501
H           -4.01505573506127        0.96457024920089       -0.58333253559529
H           -3.00250719358810       -0.25563873984930       -1.37709258331255
H           -2.81149892927638       -0.41650308274660        1.11830498745043
H           -2.27795247583928        1.26751425153790        1.18773026704030
H           -1.34261447169905       -2.17120445800039        0.20527783705846
H            0.98292408387448       -2.87397422421892       -0.27480164786367
H            2.79611282722340       -1.19527689297547       -0.41312571280693
H           -0.03486733351637        1.91637262333794        0.40612230308782
H            3.29869022855812        1.04174476139558       -0.26657284275302
19
 energy: -386.011303031114 gnorm: 0.003666289126 xtb: 6.7.1 (edcfbbe)
C           -2.98900753429719        0.64470115186757       -0.75557263628913
C           -2.27229918060820        0.36355539010631        0.57108141745071
C           -0.85141383978733       -0.08059897395456        0.34310005512910
C           -0.55045863226750       -1.43386414485712        0.14722060148703
C            0.75705958996638       -1.82759708574273       -0.12538743889316
C            1.78250262381879       -0.88879769116351       -0.20681708158402
C            1.48146892043769        0.45934653608415       -0.01033248036619
C            0.17407812835142        0.86239174049388        0.26231800287494
O            2.44246763084481        1.44128124299526       -0.07463378482867
H           -2.47367141302605        1.43366590776655       -1.31420703461793
H           -4.02107457335685        0.96629394563783       -0.58211141839378
H           -3.01117079742770       -0.25365389101071       -1.38213132203699
H           -2.81414273058017       -0.41489067869993        1.11945503314052
H           -2.28118597073894        1.26811732391691        1.18897745897935
H           -1.34280164747087       -2.17485843553331        0.20873173367305
H            0.98726539394417       -2.87850924973176       -0.27476775800683
H            2.80461261162787       -1.19369370314545       -0.41580711563344
H           -0.03491507348289        1.91911529571482        0.40991827583460
H            3.30045299583341        1.03833792961479       -0.26827071213288
19
 energy: -386.011315014883 gnorm: 0.001576527084 xtb: 6.7.1 (edcfbbe)
C           -2.99135956199268        0.64536917882553       -0.75546160011574
C           -2.27240468187446        0.36349956703222        0.56948704318238
C           -0.85094385247415       -0.08062711278637        0.34240826058414
C           -0.54934508174736       -1.43385213085775        0.14682257261880
C            0.75820346084377       -1.82771777297846       -0.12509660613620
C            1.78383612103598       -0.88915707554100       -0.20633389402350
C            1.48158275301876        0.45861590279004       -0.01071129077539
C            0.17487600118722        0.86246752124211        0.26193397221423
O            2.44467285575017        1.44166851038557       -0.07381009109859
H           -2.47776969905472        1.43493436316774       -1.31466872597209
H           -4.02318345790695        0.96668776703529       -0.57985029345503
H           -3.01507745572250       -0.25228197427035       -1.38281765942373
H           -2.81420585974210       -0.41486338120202        1.11804876465395
H           -2.28125542314779        1.26789800745153        1.18767459650676
H           -1.34124837048602       -2.17505297908072        0.20890622404011
H            0.98867690286906       -2.87876151634996       -0.27308992226219
H            2.80621655736579       -1.19273394159923       -0.41521243435517
H           -0.03475831806151        1.91871814133725        0.41024455788243
H            3.30125364398598        1.03553183198963       -0.26770889623834
19
 energy: -386.011319332070 gnorm: 0.001122366329 xtb: 6.7.1 (edcfbbe)
C           -2.99519148742219        0.64627187146708       -0.75498822054541
C           -2.27199331311026        0.36313761888986        0.56681761784130
C           -0.85038536048802       -0.08022011753021        0.33811755425282
C           -0.54758650528306       -1.43306544581013        0.14473887253972
C            0.75991783803594       -1.82737081786080       -0.12406999571901
C            1.78516690593192       -0.88910912112885       -0.20478529005215
C            1.48165191427799        0.45790241155076       -0.01055348679712
C            0.17575787641892        0.86280722840757        0.25930491280741
O            2.44812545437564        1.44137350699657       -0.07169699899103
H           -2.48532826099237        1.43719779112129       -1.31492426996817
H           -4.02605572386270        0.96656546532547       -0.57336080563473
H           -3.02192310971547       -0.24994224012302       -1.38363446714931
H           -2.81223024667364       -0.41585706938581        1.11577519747445
H           -2.27967980684556        1.26693449479633        1.18568504954784
H           -1.33861135412022       -2.17466649850529        0.20720611088565
H            0.99064875566535       -2.87848395570066       -0.26933505906384
H            2.80780290904435       -1.19143120699936       -0.41189377751675
H           -0.03451622848761        1.91825269011099        0.40825281204242
H            3.30219635855519        1.03004702135443       -0.26588924240058
19
 energy: -386.011321151565 gnorm: 0.000241477175 xtb: 6.7.1 (edcfbbe)
C           -2.99480784572765        0.64624634132088       -0.75473601741299
C           -2.27184274100406        0.36311920137580        0.56742753994967
C           -0.85047499911066       -0.08037087393151        0.33841921276486
C           -0.54798710483675       -1.43317798275594        0.14455607049003
C            0.75964768661962       -1.82744491005103       -0.12429944843260
C            1.78492119990699       -0.88909043579691       -0.20440212257803
C            1.48174808602760        0.45812637178485       -0.01050093236100
C            0.17537135229410        0.86268063990941        0.25887707963854
O            2.44730017555320        1.44124354485211       -0.07218325249485
H           -2.48427367940040        1.43698886231062       -1.31437191046103
H           -4.02577362896968        0.96660510373362       -0.57392287272218
H           -3.02089838282840       -0.25023487005300       -1.38306935947442
H           -2.81192259640817       -0.41599781994869        1.11629491542158
H           -2.27940103771205        1.26691556057196        1.18623239745319
H           -1.33930607570276       -2.17464635554168        0.20633963478204
H            0.99020678425912       -2.87849352635112       -0.27011616222800
H            2.80759172314383       -1.19215094495341       -0.41082157509271
H           -0.03465236322913        1.91851218881476        0.40677623380306
H            3.30232005100120        1.03151350719721       -0.26573295882503
19
 energy: -386.011321151565 gnorm: 0.000241477175 xtb: 6.7.1 (edcfbbe)
C           -2.99480784572765        0.64624634132088       -0.75473601741299
C           -2.27184274100406        0.36311920137580        0.56742753994967
C           -0.85047499911066       -0.08037087393151        0.33841921276486
C           -0.54798710483675       -1.43317798275594        0.14455607049003
C            0.75964768661962       -1.82744491005103       -0.12429944843260
C            1.78492119990699       -0.88909043579691       -0.20440212257803
C            1.48174808602760        0.45812637178485       -0.01050093236100
C            0.17537135229410        0.86268063990941        0.25887707963854
O            2.44730017555320        1.44124354485211       -0.07218325249485
H           -2.48427367940040        1.43698886231062       -1.31437191046103
H           -4.02577362896968        0.96660510373362       -0.57392287272218
H           -3.02089838282840       -0.25023487005300       -1.38306935947442
H           -2.81192259640817       -0.41599781994869        1.11629491542158
H           -2.27940103771205        1.26691556057196        1.18623239745319
H           -1.33930607570276       -2.17464635554168        0.20633963478204
H            0.99020678425912       -2.87849352635112       -0.27011616222800
H            2.80759172314383       -1.19215094495341       -0.41082157509271
H           -0.03465236322913        1.91851218881476        0.40677623380306
H            3.30232005100120        1.03151350719721       -0.26573295882503
