
                                 *****************
                                 * O   R   C   A *
                                 *****************

                                            #,                                       
                                            ###                                      
                                            ####                                     
                                            #####                                    
                                            ######                                   
                                           ########,                                 
                                     ,,################,,,,,                         
                               ,,#################################,,                 
                          ,,##########################################,,             
                       ,#########################################, ''#####,          
                    ,#############################################,,   '####,        
                  ,##################################################,,,,####,       
                ,###########''''           ''''###############################       
              ,#####''   ,,,,##########,,,,          '''####'''          '####       
            ,##' ,,,,###########################,,,                        '##       
           ' ,,###''''                  '''############,,,                           
         ,,##''                                '''############,,,,        ,,,,,,###''
      ,#''                                            '''#######################'''  
     '                                                          ''''####''''         
             ,#######,   #######,   ,#######,      ##                                
            ,#'     '#,  ##    ##  ,#'     '#,    #''#        ,####,   ,####,        
            ##       ##  ##   ,#'  ##            #'  '#       #'       #'  '#        
            ##       ##  #######   ##           ,######,      #####,   #    #        
            '#,     ,#'  ##    ##  '#,     ,#' ,#      #,     #,   #   #,  ,#        
             '#######'   ##     ##  '#######'  #'      '#     '####' # '####'        



                #########################################################
                #                        -***-                          #
                #          Department of theory and spectroscopy        #
                #                                                       #
                #                      Frank Neese                      #
                #                                                       #
                #     Directorship, Architecture, Infrastructure        #
                #                    SHARK, DRIVERS                     #
                #        Core code/Algorithms in most modules           #
                #                                                       #
                #        Max Planck Institute fuer Kohlenforschung      #
                #                Kaiser Wilhelm Platz 1                 #
                #                 D-45470 Muelheim/Ruhr                 #
                #                      Germany                          #
                #                                                       #
                #                  All rights reserved                  #
                #                        -***-                          #
                #########################################################


                         Program Version 6.0.0  -   RELEASE  -


 With contributions from (in alphabetic order):
   Daniel Aravena         : Magnetic Suceptibility
   Michael Atanasov       : Ab Initio Ligand Field Theory (pilot matlab implementation)
   Alexander A. Auer      : GIAO ZORA, VPT2 properties, NMR spectrum
   Ute Becker             : All parallelization in ORCA, NUMFREQ, NUMCALC
   Giovanni Bistoni       : ED, misc. LED, open-shell LED, HFLD
   Martin Brehm           : Molecular dynamics
   Dmytro Bykov           : pre 5.0 version of the SCF Hessian
   Marcos Casanova-Páez   : Triplet and SCS-CIS(D). UHF-(DLPNO)-IP/EA/STEOM-CCSD. UHF-CVS-IP/STEOM-CCSD
   Vijay G. Chilkuri      : MRCI spin determinant printing, contributions to CSF-ICE
   Pauline Colinet        : FMM embedding
   Dipayan Datta          : RHF DLPNO-CCSD density
   Achintya Kumar Dutta   : EOM-CC, STEOM-CC
   Nicolas Foglia         : Exact transition moments, OPA infrastructure, MCD improvements
   Dmitry Ganyushin       : Spin-Orbit,Spin-Spin,Magnetic field MRCI
   Miquel Garcia          : C-PCM and meta-GGA Hessian, CCSD/C-PCM, Gaussian charge scheme
   Tiago L. C. Gouveia    : GS-ROHF, GS-ROCIS
   Yang Guo               : DLPNO-NEVPT2, F12-NEVPT2, CIM, IAO-localization
   Andreas Hansen         : Spin unrestricted coupled pair/coupled cluster methods
   Ingolf Harden          : AUTO-CI MPn and infrastructure 
   Benjamin Helmich-Paris : MC-RPA, TRAH-(SCF,CASSCF), AVAS, COSX integrals, SCF dyn. polar.
   Lee Huntington         : MR-EOM, pCC
   Robert Izsak           : Overlap fitted RIJCOSX, COSX-SCS-MP3, EOM
   Riya Kayal             : Wick's Theorem for AUTO-CI, AUTO-CI UHF-CCSDT
   Emily Kempfer          : AUTO-CI, RHF CISDT and CCSDT
   Christian Kollmar      : KDIIS, OOCD, Brueckner-CCSD(T), CCSD density, CASPT2, CASPT2-K, improved NEVPT2
   Axel Koslowski         : Symmetry handling
   Simone Kossmann        : Meta GGA functionals, TD-DFT gradient, OOMP2, (MP2 Hessian; deprecated post 5.0)
   Lucas Lang             : DCDCAS
   Marvin Lechner         : AUTO-CI (C++ implementation), FIC-MRCC
   Spencer Leger          : CASSCF response
   Dagmar Lenk            : GEPOL surface, SMD, ORCA-2-JSON
   Dimitrios Liakos       : Extrapolation schemes; Compound Job, initial MDCI parallelization
   Dimitrios Manganas     : Further ROCIS development; embedding schemes. LFT, Crystal Embedding
   Dimitrios Pantazis     : SARC Basis sets
   Anastasios Papadopoulos: AUTO-CI, single reference methods and gradients
   Taras Petrenko         : pre 6.0 DFT Hessian and TD-DFT gradient, (ASA, deprecated), ECA, 1-Electron XAS/XES, NRVS
   Peter Pinski           : DLPNO-MP2, DLPNO-MP2 Gradient
   Christoph Reimann      : Effective Core Potentials
   Marius Retegan         : Local ZFS, SOC
   Christoph Riplinger    : Optimizer, TS searches, QM/MM, DLPNO-CCSD(T), (RO)-DLPNO pert. Triples
   Michael Roemelt        : Original ROCIS implementation
   Masaaki Saitow         : Open-shell DLPNO-CCSD energy and density
   Barbara Sandhoefer     : DKH picture change effects
   Kantharuban Sivalingam : CASSCF convergence/infrastructure, NEVPT2 and variants, FIC-MRCI
   Bernardo de Souza      : ESD, SOC TD-DFT
   Georgi Stoychev        : AutoAux, RI-MP2 NMR, DLPNO-MP2 response, X2C
   Van Anh Tran           : RI-MP2 g-tensors
   Willem Van den Heuvel  : Paramagnetic NMR
   Zikuan Wang            : NOTCH, Electric field optimization 
   Frank Wennmohs         : Technical directorship and infrastructure
   Hang Xu                : AUTO-CI-Response properties 


 We gratefully acknowledge several colleagues who have allowed us to
 interface, adapt or use parts of their codes:
   Stefan Grimme, W. Hujo, H. Kruse, P. Pracht,  : VdW corrections, initial TS optimization,
                  C. Bannwarth, S. Ehlert,         DFT functionals, gCP, sTDA/sTD-DF
                  L. Wittmann, M. Mueller
   Ed Valeev, F. Pavosevic, A. Kumar             : LibInt (2-el integral package), F12 methods
   Garnet Chan, S. Sharma, J. Yang, R. Olivares  : DMRG
   Ulf Ekstrom                                   : XCFun DFT Library
   Mihaly Kallay                                 : mrcc  (arbitrary order and MRCC methods)
   Frank Weinhold                                : gennbo (NPA and NBO analysis)
   Simon Mueller                                 : openCOSMO-RS
   Christopher J. Cramer and Donald G. Truhlar   : smd solvation model
   Lars Goerigk                                  : TD-DFT with DH, B97 family of functionals
   V. Asgeirsson, H. Jonsson                     : NEB implementation
   FAccTs GmbH                                   : IRC, NEB, NEB-TS, DLPNO-Multilevel, CI-OPT
                                                   MM, QMMM, 2- and 3-layer-ONIOM, Crystal-QMMM,
                                                   LR-CPCM, SF, NACMEs, symmetry and pop. for TD-DFT,
                                                   nearIR, NL-DFT gradient (VV10), updates on ESD,
                                                   ML-optimized integration grids, MBIS, APM,
                                                   GOAT, DOCKER, SOLVATOR, interface openCOSMO-RS
   S Lehtola, MJT Oliveira, MAL Marques          : LibXC Library
   Liviu Ungur et al                             : ANISO software


 Your calculation uses the libint2 library for the computation of 2-el integrals
 For citations please refer to: http://libint.valeyev.net

 Your ORCA version has been built with support for libXC version: 6.2.2
 For citations please refer to: https://libxc.gitlab.io

 This ORCA versions uses:
   CBLAS   interface :  Fast vector & matrix operations
   LAPACKE interface :  Fast linear algebra routines
   SCALAPACK package :  Parallel linear algebra routines
   Shared memory     :  Shared parallel matrices
   BLAS/LAPACK       :  OpenBLAS 0.3.27  USE64BITINT DYNAMIC_ARCH NO_AFFINITY SkylakeX SINGLE_THREADED
        Core in use  :  SkylakeX
   Copyright (c) 2011-2014, The OpenBLAS Project


Your calculation utilizes the geometrical counterpoise correction gCP
Please cite in your paper:
H.Kruse, S. Grimme J.Chem.Phys., 136, (2012), 154101 
   

Your calculation utilizes the atom-pairwise dispersion correction
based on EEQ partial charges (D4)


================================================================================

----- Orbital basis set information -----
Your calculation utilizes the basis: def2-SV(P)
   F. Weigend and R. Ahlrichs, Phys. Chem. Chem. Phys. 7, 3297 (2005).

----- AuxJ basis set information -----
Your calculation utilizes the auxiliary basis: def2/J
   F. Weigend, Phys. Chem. Chem. Phys. 8, 1057 (2006).

================================================================================
                                        WARNINGS
                       Please study these warnings very carefully!
================================================================================


================================================================================
                                       INPUT FILE
================================================================================
NAME = sp.inp
|  1> ! pbe def2-sv(p) def2/J RI DEFGRID1 loosescf d4 GCP(DFT/SV(P)) printgap
|  2> %output
|  3>     printlevel normal
|  4> end
|  5> * xyz 0 1
|  6> C -2.7008883538 0.8449041967 1.3611129844
|  7> C -1.6135482061 0.4692314887 0.4077274434
|  8> C -0.8572567088 1.3403285327 -0.2480352389
|  9> C 0.2021692632 0.888882016 -1.2036410675
| 10> C 0.9887780766 -0.3402127488 -0.6945960145
| 11> H 1.337128305 -0.8941479099 -1.5712217548
| 12> C 0.1401551973 -1.2912493621 0.1808330335
| 13> C -1.3700823816 -1.0040268029 0.1747736046
| 14> H -1.840855361 -1.5933395581 0.9702854206
| 15> O -2.0060048131 -1.4749377482 -1.0057543614
| 16> C 2.2124730205 0.0895275188 0.0825935828
| 17> C 3.4074996137 -0.4081024245 -0.1952850227
| 18> C 2.0096359882 1.0946496281 1.1761949909
| 19> H -2.8093169355 1.9245106606 1.4205811568
| 20> H -2.4825815706 0.4547833296 2.3547581612
| 21> H -3.6438440241 0.4085740881 1.033777319
| 22> H -0.9975211553 2.4038396613 -0.1193047336
| 23> H -0.2653988169 0.6379461733 -2.1610349679
| 24> H 0.9020122709 1.700222568 -1.4074640019
| 25> H 0.291404467 -2.3221330406 -0.1424456375
| 26> H 0.4733922363 -1.2246041216 1.2174008177
| 27> H -1.6615223088 -0.9812573699 -1.7610619525
| 28> H 4.2853879716 -0.125335643 0.3610655749
| 29> H 3.5602867693 -1.1189937952 -0.9899214325
| 30> H 1.1064464709 0.8796188562 1.7419588052
| 31> H 2.8613524643 1.1039008043 1.8508198
| 32> H 1.9008323173 2.0923933139 0.7536164499
| 33> *
| 34> 
| 35>                          ****END OF INPUT****
================================================================================

                       ****************************
                       * Single Point Calculation *
                       ****************************

---------------------------------
CARTESIAN COORDINATES (ANGSTROEM)
---------------------------------
  C     -2.700888    0.844904    1.361113
  C     -1.613548    0.469231    0.407727
  C     -0.857257    1.340329   -0.248035
  C      0.202169    0.888882   -1.203641
  C      0.988778   -0.340213   -0.694596
  H      1.337128   -0.894148   -1.571222
  C      0.140155   -1.291249    0.180833
  C     -1.370082   -1.004027    0.174774
  H     -1.840855   -1.593340    0.970285
  O     -2.006005   -1.474938   -1.005754
  C      2.212473    0.089528    0.082594
  C      3.407500   -0.408102   -0.195285
  C      2.009636    1.094650    1.176195
  H     -2.809317    1.924511    1.420581
  H     -2.482582    0.454783    2.354758
  H     -3.643844    0.408574    1.033777
  H     -0.997521    2.403840   -0.119305
  H     -0.265399    0.637946   -2.161035
  H      0.902012    1.700223   -1.407464
  H      0.291404   -2.322133   -0.142446
  H      0.473392   -1.224604    1.217401
  H     -1.661522   -0.981257   -1.761062
  H      4.285388   -0.125336    0.361066
  H      3.560287   -1.118994   -0.989921
  H      1.106446    0.879619    1.741959
  H      2.861352    1.103901    1.850820
  H      1.900832    2.092393    0.753616

----------------------------
CARTESIAN COORDINATES (A.U.)
----------------------------
  NO LB      ZA    FRAG     MASS         X           Y           Z
   0 C     6.0000    0    12.011   -5.103939    1.596638    2.572131
   1 C     6.0000    0    12.011   -3.049164    0.886719    0.770493
   2 C     6.0000    0    12.011   -1.619980    2.532854   -0.468719
   3 C     6.0000    0    12.011    0.382045    1.679744   -2.274552
   4 C     6.0000    0    12.011    1.868520   -0.642909   -1.312596
   5 H     1.0000    0     1.008    2.526806   -1.689695   -2.969179
   6 C     6.0000    0    12.011    0.264855   -2.440108    0.341725
   7 C     6.0000    0    12.011   -2.589080   -1.897336    0.330274
   8 H     1.0000    0     1.008   -3.478712   -3.010975    1.833574
   9 O     8.0000    0    15.999   -3.790800   -2.787228   -1.900600
  10 C     6.0000    0    12.011    4.180968    0.169182    0.156079
  11 C     6.0000    0    12.011    6.439241   -0.771202   -0.369035
  12 C     6.0000    0    12.011    3.797662    2.068588    2.222686
  13 H     1.0000    0     1.008   -5.308840    3.636798    2.684509
  14 H     1.0000    0     1.008   -4.691399    0.859416    4.449848
  15 H     1.0000    0     1.008   -6.885867    0.772093    1.953556
  16 H     1.0000    0     1.008   -1.885042    4.542599   -0.225453
  17 H     1.0000    0     1.008   -0.501531    1.205544   -4.083764
  18 H     1.0000    0     1.008    1.704556    3.212955   -2.659722
  19 H     1.0000    0     1.008    0.550675   -4.388195   -0.269183
  20 H     1.0000    0     1.008    0.894582   -2.314166    2.300554
  21 H     1.0000    0     1.008   -3.139822   -1.854308   -3.327925
  22 H     1.0000    0     1.008    8.098210   -0.236850    0.682315
  23 H     1.0000    0     1.008    6.727967   -2.114592   -1.870680
  24 H     1.0000    0     1.008    2.090881    1.662239    3.291825
  25 H     1.0000    0     1.008    5.407173    2.086070    3.497543
  26 H     1.0000    0     1.008    3.592053    3.954050    1.424129

--------------------------------
INTERNAL COORDINATES (ANGSTROEM)
--------------------------------
 C      0   0   0     0.000000000000     0.00000000     0.00000000
 C      1   0   0     1.494115982822     0.00000000     0.00000000
 C      2   1   0     1.326955758287   124.40613722     0.00000000
 C      3   2   1     1.496452420641   121.40166712   180.88269508
 C      4   3   2     1.545494817902   112.94916568   319.52829303
 H      5   4   3     1.093921721553   107.50795293   151.61878941
 C      5   4   3     1.546288281399   113.34557988    31.73766196
 C      2   1   3     1.511301787361   117.43227518   180.33618461
 H      8   2   1     1.096246218224   110.06001185   343.27112635
 O      8   2   1     1.421196937724   112.26940810    97.91662346
 C      5   4   3     1.511995265692   110.80511690   268.63601085
 C     11   5   4     1.323986645823   121.05000202   230.81758941
 C     11   5   4     1.499125530459   117.13112899    50.98014586
 H      1   2   3     1.086666157453   110.93671511     1.80094568
 H      1   2   3     1.089579221496   110.24743085   240.94097608
 H      1   2   3     1.089356689824   109.72447032   122.48223412
 H      3   2   1     1.080417316875   120.88497176   359.96049425
 H      4   3   2     1.094619471416   108.98246361    80.64543817
 H      4   3   2     1.090686717318   110.43759838   197.10030838
 H      7   5   4     1.090920070081   109.71474834   133.12069849
 H      7   5   4     1.090853465633   109.43551822   250.56996830
 H     10   8   2     0.965856132589   108.70095559    59.73562871
 H     12  11   5     1.077112347486   121.90909611   181.13404127
 H     12  11   5     1.077106067030   122.06890582     1.12901337
 H     13  11   5     1.087234211472   111.06342561    41.19222104
 H     13  11   5     1.086565770202   110.64492017   162.70828428
 H     13  11   5     1.088991884574   110.16558361   282.24094330

---------------------------
INTERNAL COORDINATES (A.U.)
---------------------------
 C      0   0   0     0.000000000000     0.00000000     0.00000000
 C      1   0   0     2.823470019848     0.00000000     0.00000000
 C      2   1   0     2.507582974992   124.40613722     0.00000000
 C      3   2   1     2.827885247455   121.40166712   180.88269508
 C      4   3   2     2.920561947229   112.94916568   319.52829303
 H      5   4   3     2.067212465683   107.50795293   151.61878941
 C      5   4   3     2.922061375935   113.34557988    31.73766196
 C      2   1   3     2.855946483817   117.43227518   180.33618461
 H      8   2   1     2.071605127790   110.06001185   343.27112635
 O      8   2   1     2.685672994666   112.26940810    97.91662346
 C      5   4   3     2.857256967943   110.80511690   268.63601085
 C     11   5   4     2.501972165575   121.05000202   230.81758941
 C     11   5   4     2.832936692937   117.13112899    50.98014586
 H      1   2   3     2.053501436586   110.93671511     1.80094568
 H      1   2   3     2.059006329839   110.24743085   240.94097608
 H      1   2   3     2.058585805923   109.72447032   122.48223412
 H      3   2   1     2.041692839239   120.88497176   359.96049425
 H      4   3   2     2.068531021834   108.98246361    80.64543817
 H      4   3   2     2.061099193636   110.43759838   197.10030838
 H      7   5   4     2.061540166452   109.71474834   133.12069849
 H      7   5   4     2.061414302286   109.43551822   250.56996830
 H     10   8   2     1.825203575362   108.70095559    59.73562871
 H     12  11   5     2.035447352213   121.90909611   181.13404127
 H     12  11   5     2.035435483871   122.06890582     1.12901337
 H     13  11   5     2.054574903112   111.06342561    41.19222104
 H     13  11   5     2.053311732175   110.64492017   162.70828428
 H     13  11   5     2.057896423908   110.16558361   282.24094330

---------------------
BASIS SET INFORMATION
---------------------
There are 3 groups of distinct atoms

 Group   1 Type C   : 7s4p1d contracted to 3s2p1d pattern {511/31/1}
 Group   2 Type H   : 4s contracted to 2s pattern {31}
 Group   3 Type O   : 7s4p1d contracted to 3s2p1d pattern {511/31/1}

Atom   0C    basis set group =>   1
Atom   1C    basis set group =>   1
Atom   2C    basis set group =>   1
Atom   3C    basis set group =>   1
Atom   4C    basis set group =>   1
Atom   5H    basis set group =>   2
Atom   6C    basis set group =>   1
Atom   7C    basis set group =>   1
Atom   8H    basis set group =>   2
Atom   9O    basis set group =>   3
Atom  10C    basis set group =>   1
Atom  11C    basis set group =>   1
Atom  12C    basis set group =>   1
Atom  13H    basis set group =>   2
Atom  14H    basis set group =>   2
Atom  15H    basis set group =>   2
Atom  16H    basis set group =>   2
Atom  17H    basis set group =>   2
Atom  18H    basis set group =>   2
Atom  19H    basis set group =>   2
Atom  20H    basis set group =>   2
Atom  21H    basis set group =>   2
Atom  22H    basis set group =>   2
Atom  23H    basis set group =>   2
Atom  24H    basis set group =>   2
Atom  25H    basis set group =>   2
Atom  26H    basis set group =>   2
---------------------------------
AUXILIARY/J BASIS SET INFORMATION
---------------------------------
There are 3 groups of distinct atoms

 Group   1 Type C   : 12s5p4d2f1g contracted to 6s4p3d1f1g pattern {711111/2111/211/2/1}
 Group   2 Type H   : 5s2p1d contracted to 3s1p1d pattern {311/2/1}
 Group   3 Type O   : 12s5p4d2f1g contracted to 6s4p3d1f1g pattern {711111/2111/211/2/1}

Atom   0C    basis set group =>   1
Atom   1C    basis set group =>   1
Atom   2C    basis set group =>   1
Atom   3C    basis set group =>   1
Atom   4C    basis set group =>   1
Atom   5H    basis set group =>   2
Atom   6C    basis set group =>   1
Atom   7C    basis set group =>   1
Atom   8H    basis set group =>   2
Atom   9O    basis set group =>   3
Atom  10C    basis set group =>   1
Atom  11C    basis set group =>   1
Atom  12C    basis set group =>   1
Atom  13H    basis set group =>   2
Atom  14H    basis set group =>   2
Atom  15H    basis set group =>   2
Atom  16H    basis set group =>   2
Atom  17H    basis set group =>   2
Atom  18H    basis set group =>   2
Atom  19H    basis set group =>   2
Atom  20H    basis set group =>   2
Atom  21H    basis set group =>   2
Atom  22H    basis set group =>   2
Atom  23H    basis set group =>   2
Atom  24H    basis set group =>   2
Atom  25H    basis set group =>   2
Atom  26H    basis set group =>   2
------------------------------------------------------------------------------
                             ORCA STARTUP CALCULATIONS
                           -- RI-GTO INTEGRALS CHOSEN --
------------------------------------------------------------------------------
------------------------------------------------------------------------------
                   ___                                                        
                  /   \      - P O W E R E D   B Y -                         
                 /     \                                                     
                 |  |  |   _    _      __       _____    __    __             
                 |  |  |  | |  | |    /  \     |  _  \  |  |  /  |          
                  \  \/   | |  | |   /    \    | | | |  |  | /  /          
                 / \  \   | |__| |  /  /\  \   | |_| |  |  |/  /          
                |  |  |   |  __  | /  /__\  \  |    /   |      \           
                |  |  |   | |  | | |   __   |  |    \   |  |\   \          
                \     /   | |  | | |  |  |  |  | |\  \  |  | \   \       
                 \___/    |_|  |_| |__|  |__|  |_| \__\ |__|  \__/        
                                                                              
                      - O R C A' S   B I G   F R I E N D -                    
                                      &                                       
                       - I N T E G R A L  F E E D E R -                       
                                                                              
 v1 FN, 2020, v2 2021, v3 2022-2024                                           
------------------------------------------------------------------------------


----------------------
SHARK INTEGRAL PACKAGE
----------------------

Number of atoms                             ...     27
Number of basis functions                   ...    186
Number of shells                            ...     98
Maximum angular momentum                    ...      2
Integral batch strategy                     ... SHARK/LIBINT Hybrid
RI-J (if used) integral strategy            ... SPLIT-RIJ (Revised 2003 algorithm where possible)
Printlevel                                  ...      1
Contraction scheme used                     ... SEGMENTED contraction
Prescreening option                         ... SCHWARTZ
   Thresh                                   ... 1.000e-09
   Tcut                                     ... 1.000e-10
   Tpresel                                  ... 1.000e-10 
Coulomb Range Separation                    ... NOT USED
Exchange Range Separation                   ... NOT USED
Multipole approximations                    ... NOT USED
Finite Nucleus Model                        ... NOT USED
CABS basis                                  ... NOT available
Auxiliary Coulomb fitting basis             ... AVAILABLE
   # of basis functions in Aux-J            ...    715
   # of shells in Aux-J                     ...    245
   Maximum angular momentum in Aux-J        ...      4
Auxiliary J/K fitting basis                 ... NOT available
Auxiliary Correlation fitting basis         ... NOT available
Auxiliary 'external' fitting basis          ... NOT available

Checking pre-screening integrals            ... done (  0.0 sec) Dimension = 98
Check shell pair data                       ... done (  0.0 sec)
Shell pair information
Shell pair cut-off parameter TPreSel        ...   1.0e-10
Total number of shell pairs                 ...      4851
Shell pairs after pre-screening             ...      4503
Total number of primitive shell pairs       ...     19497
Primitive shell pairs kept                  ...     12288
          la=0 lb=0:   1969 shell pairs
          la=1 lb=0:   1363 shell pairs
          la=1 lb=1:    249 shell pairs
          la=2 lb=0:    635 shell pairs
          la=2 lb=1:    230 shell pairs
          la=2 lb=2:     57 shell pairs

Calculating one electron integrals          ... done (  0.0 sec)
Calculating RI/J V-Matrix + Cholesky decomp.... done (  0.1 sec)
Calculating Nuclear repulsion               ... done (  0.0 sec) ENN=    645.856116229462 Eh

Diagonalization of the overlap matrix:
Smallest eigenvalue                        ... 5.876e-04
Time for diagonalization                   ...    0.003 sec
Threshold for overlap eigenvalues          ... 1.000e-07
Number of eigenvalues below threshold      ... 0
Time for construction of square roots      ...    0.013 sec
Total time needed                          ...    0.025 sec

-------------------
DFT GRID GENERATION
-------------------

General Integration Accuracy     IntAcc      ... 4.159
Radial Grid Type                 RadialGrid  ... OptM3 with GC (2021)
Angular Grid (max. ang.)         AngularGrid ... 3 (Lebedev-194)
Angular grid pruning method      GridPruning ... 4 (adaptive)
Weight generation scheme         WeightScheme... mBecke (2022)
Basis function cutoff            BFCut       ... 1.0000e-10
Integration weight cutoff        WCut        ... 1.0000e-14
Partially contracted basis set               ... off
Rotationally invariant grid construction     ... off
Angular grids for H and He will be reduced by one unit

Total number of grid points                  ...    57632
Total number of batches                      ...      915
Average number of points per batch           ...       62
Average number of grid points per atom       ...     2135
Initializing property integral containers    ... done (  0.0 sec)

SHARK setup successfully completed in   0.9 seconds

Maximum memory used throughout the entire STARTUP-calculation: 28.7 MB
-------------------------------------------------------------------------------
                                 ORCA GUESS
                   Start orbitals & Density for SCF / CASSCF
-------------------------------------------------------------------------------

------------
SCF SETTINGS
------------
Hamiltonian:
 Density Functional     Method          .... DFT(GTOs)
 Exchange Functional    Exchange        .... PBE
   PBE kappa parameter   XKappa         ....  0.804000
   PBE mue parameter    XMuePBE         ....  0.219520
 Correlation Functional Correlation     .... PBE
   PBE beta parameter  CBetaPBE         ....  0.066725
 LDA part of GGA corr.  LDAOpt          .... PW91-LDA
 Gradients option       PostSCFGGA      .... off
   NL short-range parameter             ....  6.400000
 RI-approximation to the Coulomb term is turned on
   Number of AuxJ basis functions       .... 715


General Settings:
 Integral files         IntName         .... sp
 Hartree-Fock type      HFTyp           .... RHF
 Total Charge           Charge          ....    0
 Multiplicity           Mult            ....    1
 Number of Electrons    NEL             ....   84
 Basis Dimension        Dim             ....  186
 Nuclear Repulsion      ENuc            ....    645.8561162295 Eh

Convergence Acceleration:
 AO-DIIS                CNVDIIS         .... on
   Start iteration      DIISMaxIt       ....    12
   Startup error        DIISStart       ....  0.200000
   # of expansion vecs  DIISMaxEq       ....     5
   Bias factor          DIISBfac        ....   1.050
   Max. coefficient     DIISMaxC        ....  10.000
 MO-DIIS                CNVKDIIS        .... off
 Trust-Rad. Augm. Hess. CNVTRAH         .... auto
   Auto Start mean grad. ratio tolernc. ....  1.125000
   Auto Start start iteration           ....    50
   Auto Start num. interpolation iter.  ....    10
   Max. Number of Micro iterations      ....    24
   Max. Number of Macro iterations      .... Maxiter - #DIIS iter
   Number of Davidson start vectors     ....     2
   Converg. threshold    (grad. norm)   ....   1.000e-04
   Grad. Scal. Fac. for Micro threshold ....   0.100
   Minimum threshold for Micro iter.    ....   1.000e-02
   NR start threshold (gradient norm)   ....   1.000e-04
   Initial trust radius                 ....   0.400
   Minimum AH scaling param. (alpha)    ....   1.000
   Maximum AH scaling param. (alpha)    .... 1000.000
   Quad. conv. algorithm                .... NR
   White noise on init. David. guess    .... on
   Maximum white noise                  ....   0.010
   Pseudo random numbers                .... off
   Inactive MOs                         .... canonical
   Orbital update algorithm             .... Taylor
   Preconditioner                       .... Diag
   Full preconditioner red. dimension   ....   250
 SOSCF                  CNVSOSCF        .... on
   Start iteration      SOSCFMaxIt      ....   150
   Startup grad/error   SOSCFStart      ....  0.003300
   Hessian update       SOSCFHessUp     .... L-BFGS
 Level Shifting         CNVShift        .... on
   Level shift para.    LevelShift      ....    0.2500
   Turn off err/grad.   ShiftErr        ....    0.0010
 Zerner damping         CNVZerner       .... off
 Static damping         CNVDamp         .... on
   Fraction old density DampFac         ....    0.7000
   Max. Damping (<1)    DampMax         ....    0.9800
   Min. Damping (>=0)   DampMin         ....    0.0000
   Turn off err/grad.   DampErr         ....    0.1000

SCF Procedure:
 Maximum # iterations   MaxIter         ....   125
 SCF integral mode      SCFMode         .... Direct
   Integral package                     .... SHARK and LIBINT hybrid scheme
 Reset frequency        DirectResetFreq ....    20
 Integral Threshold     Thresh          ....  1.000e-09 Eh
 Primitive CutOff       TCut            ....  1.000e-10 Eh

Convergence Tolerance:
 Convergence Check Mode ConvCheckMode   .... Total+1el-Energy
 Convergence forced     ConvForced      .... 0
 Energy Change          TolE            ....  1.000e-05 Eh
 1-El. energy change                    ....  1.000e-02 Eh
 Orbital Gradient       TolG            ....  1.000e-04
 Orbital Rotation angle TolX            ....  1.000e-04
 DIIS Error             TolErr          ....  5.000e-04

------------------------------
INITIAL GUESS: MODEL POTENTIAL
------------------------------
Loading Hartree-Fock densities                     ... done
Calculating cut-offs                               ... done
Initializing the effective Hamiltonian             ... done
Setting up the integral package (SHARK)            ... done
Starting the Coulomb interaction                   ... done (   0.2 sec)
Making the grid                                    ... done (   0.3 sec)
Mapping shells                                     ... done
Starting the XC term evaluation                    ... done (   0.3 sec)
  promolecular density results
     # of electrons  =     83.994836850
     EX              =    -64.050694564
     EC              =     -2.780185258
     EX+EC           =    -66.830879822
Transforming the Hamiltonian                       ... done (   0.0 sec)
Diagonalizing the Hamiltonian                      ... done (   0.0 sec)
Back transforming the eigenvectors                 ... done (   0.0 sec)
Now organizing SCF variables                       ... done
                      ------------------
                      INITIAL GUESS DONE (   0.8 sec)
                      ------------------
             **** ENERGY FILE WAS UPDATED (sp.en.tmp) ****
Finished Guess after   1.0 sec
Maximum memory used throughout the entire GUESS-calculation: 22.2 MB

-------------------------------------------------------------------------------------------
                                      ORCA LEAN-SCF
                              memory conserving SCF solver
-------------------------------------------------------------------------------------------

----------------------------------------D-I-I-S--------------------------------------------
Iteration    Energy (Eh)           Delta-E    RMSDP     MaxDP     DIISErr   Damp  Time(sec)
-------------------------------------------------------------------------------------------
               ***  Starting incremental Fock matrix formation  ***
    1    -464.5891287186253749     0.00e+00  3.82e-03  7.92e-02  2.14e-01  0.700   1.2
    2    -464.7274699599496444    -1.38e-01  2.79e-03  4.63e-02  7.92e-02  0.700   1.2
                               ***Turning on AO-DIIS***
    3    -464.7776907111850733    -5.02e-02  1.15e-03  1.34e-02  2.41e-02  0.700   1.2
    4    -464.8069767667310543    -2.93e-02  1.78e-03  2.18e-02  8.47e-03  0.000   1.1
    5    -464.8725067023930251    -6.55e-02  4.96e-04  9.53e-03  8.46e-03  0.000   1.1
                              *** Initializing SOSCF ***
---------------------------------------S-O-S-C-F--------------------------------------
Iteration    Energy (Eh)           Delta-E    RMSDP     MaxDP     MaxGrad    Time(sec)
--------------------------------------------------------------------------------------
    6    -464.8730181222732654    -5.11e-04  1.70e-04  2.61e-03  1.84e-03     1.1
               *** Restarting incremental Fock matrix formation ***
    7    -464.8730648848910505    -4.68e-05  1.15e-04  2.56e-03  2.92e-04     1.2
    8    -464.8730597061800154     5.18e-06  4.51e-05  1.03e-03  6.60e-04     1.0
                 **** Energy Check signals convergence ****

               *****************************************************
               *                     SUCCESS                       *
               *           SCF CONVERGED AFTER   8 CYCLES          *
               *****************************************************

             **** ENERGY FILE WAS UPDATED (sp.en.tmp) ****

----------------
TOTAL SCF ENERGY
----------------

Total Energy       :       -464.87305970618002 Eh          -12649.83906 eV

Components:
Nuclear Repulsion  :        645.85611622946192 Eh           17574.63840 eV
Electronic Energy  :      -1110.72917593564216 Eh          -30224.47746 eV
One Electron Energy:      -1910.03280102973599 Eh          -51974.63486 eV
Two Electron Energy:        799.30362509409395 Eh           21750.15740 eV

Virial components:
Potential Energy   :       -925.70584508182662 Eh          -25189.73667 eV
Kinetic Energy     :        460.83278537564661 Eh           12539.89761 eV
Virial Ratio       :          2.00876733266111

DFT components:
N(Alpha)           :       42.000154627250 electrons
N(Beta)            :       42.000154627250 electrons
N(Total)           :       84.000309254500 electrons
E(X)               :      -65.438453929149 Eh       
E(C)               :       -2.791886227444 Eh       
E(XC)              :      -68.230340156593 Eh       

---------------
SCF CONVERGENCE
---------------

  Last Energy change         ...   -5.1787e-06  Tolerance :   1.0000e-05
  Last MAX-Density change    ...    1.0309e-03  Tolerance :   1.0000e-03
  Last RMS-Density change    ...    4.5068e-05  Tolerance :   1.0000e-04
  Last DIIS Error            ...    1.8427e-03  Tolerance :   5.0000e-04
  Last Orbital Gradient      ...    6.6036e-04  Tolerance :   1.0000e-04
  Last Orbital Rotation      ...    1.0061e-03  Tolerance :   1.0000e-04


----------------
ORBITAL ENERGIES
----------------

  NO   OCC          E(Eh)            E(eV) 
   0   2.0000     -18.740617      -509.9581 
   1   2.0000      -9.936219      -270.3783 
   2   2.0000      -9.902781      -269.4684 
   3   2.0000      -9.899623      -269.3824 
   4   2.0000      -9.896801      -269.3056 
   5   2.0000      -9.892273      -269.1824 
   6   2.0000      -9.885326      -268.9934 
   7   2.0000      -9.884976      -268.9839 
   8   2.0000      -9.881782      -268.8969 
   9   2.0000      -9.880219      -268.8544 
  10   2.0000      -9.867670      -268.5129 
  11   2.0000      -0.918267       -24.9873 
  12   2.0000      -0.766217       -20.8498 
  13   2.0000      -0.723189       -19.6790 
  14   2.0000      -0.676616       -18.4117 
  15   2.0000      -0.665568       -18.1110 
  16   2.0000      -0.618986       -16.8435 
  17   2.0000      -0.605529       -16.4773 
  18   2.0000      -0.562248       -15.2995 
  19   2.0000      -0.533480       -14.5167 
  20   2.0000      -0.491353       -13.3704 
  21   2.0000      -0.466172       -12.6852 
  22   2.0000      -0.432018       -11.7558 
  23   2.0000      -0.428823       -11.6689 
  24   2.0000      -0.405024       -11.0213 
  25   2.0000      -0.400924       -10.9097 
  26   2.0000      -0.388755       -10.5786 
  27   2.0000      -0.382362       -10.4046 
  28   2.0000      -0.367167        -9.9911 
  29   2.0000      -0.362215        -9.8564 
  30   2.0000      -0.354264        -9.6400 
  31   2.0000      -0.346192        -9.4204 
  32   2.0000      -0.334551        -9.1036 
  33   2.0000      -0.327728        -8.9179 
  34   2.0000      -0.323309        -8.7977 
  35   2.0000      -0.302054        -8.2193 
  36   2.0000      -0.294023        -8.0008 
  37   2.0000      -0.280150        -7.6233 
  38   2.0000      -0.263739        -7.1767 
  39   2.0000      -0.224263        -6.1025 
  40   2.0000      -0.211652        -5.7594 
  41   2.0000      -0.204245        -5.5578 
  42   0.0000      -0.025210        -0.6860 
  43   0.0000      -0.008953        -0.2436 
  44   0.0000       0.022126         0.6021 
  45   0.0000       0.039512         1.0752 
  46   0.0000       0.056292         1.5318 
  47   0.0000       0.063005         1.7145 
  48   0.0000       0.073092         1.9889 
  49   0.0000       0.082193         2.2366 
  50   0.0000       0.092055         2.5049 
  51   0.0000       0.106837         2.9072 
  52   0.0000       0.109998         2.9932 
*Only the first 10 virtual orbitals were printed.

                    ********************************
                    * MULLIKEN POPULATION ANALYSIS *
                    ********************************

-----------------------
MULLIKEN ATOMIC CHARGES
-----------------------
   0 C :   -0.210811
   1 C :   -0.041171
   2 C :   -0.239595
   3 C :   -0.039384
   4 C :   -0.122522
   5 H :    0.053134
   6 C :   -0.063841
   7 C :    0.069568
   8 H :    0.051051
   9 O :   -0.432164
  10 C :   -0.092798
  11 C :   -0.229838
  12 C :   -0.200508
  13 H :    0.096212
  14 H :    0.107086
  15 H :    0.118277
  16 H :    0.044486
  17 H :    0.083033
  18 H :    0.095593
  19 H :    0.081732
  20 H :    0.089977
  21 H :    0.295438
  22 H :    0.079501
  23 H :    0.082763
  24 H :    0.113359
  25 H :    0.101945
  26 H :    0.109479
Sum of atomic charges:   -0.0000000

--------------------------------
MULLIKEN REDUCED ORBITAL CHARGES
--------------------------------
  0 C s       :     3.016465  s :     3.016465
      pz      :     1.052998  p :     3.165061
      px      :     1.060723
      py      :     1.051340
      dz2     :     0.008487  d :     0.029285
      dxz     :     0.004862
      dyz     :     0.003700
      dx2y2   :     0.007896
      dxy     :     0.004339

  1 C s       :     3.052807  s :     3.052807
      pz      :     0.959109  p :     2.947655
      px      :     0.970131
      py      :     1.018415
      dz2     :     0.007813  d :     0.040708
      dxz     :     0.005468
      dyz     :     0.007458
      dx2y2   :     0.010885
      dxy     :     0.009085

  2 C s       :     3.261825  s :     3.261825
      pz      :     1.016450  p :     2.943338
      px      :     1.025788
      py      :     0.901101
      dz2     :     0.007353  d :     0.034432
      dxz     :     0.005238
      dyz     :     0.004992
      dx2y2   :     0.010649
      dxy     :     0.006199

  3 C s       :     2.925914  s :     2.925914
      pz      :     1.055568  p :     3.077125
      px      :     1.002588
      py      :     1.018969
      dz2     :     0.008444  d :     0.036345
      dxz     :     0.007976
      dyz     :     0.005186
      dx2y2   :     0.004920
      dxy     :     0.009818

  4 C s       :     3.064435  s :     3.064435
      pz      :     1.001944  p :     3.016619
      px      :     1.021619
      py      :     0.993056
      dz2     :     0.006703  d :     0.041467
      dxz     :     0.008766
      dyz     :     0.009709
      dx2y2   :     0.007351
      dxy     :     0.008937

  5 H s       :     0.946866  s :     0.946866

  6 C s       :     2.981183  s :     2.981183
      pz      :     1.022806  p :     3.048628
      px      :     0.986972
      py      :     1.038849
      dz2     :     0.009124  d :     0.034031
      dxz     :     0.005994
      dyz     :     0.003753
      dx2y2   :     0.009559
      dxy     :     0.005601

  7 C s       :     3.044412  s :     3.044412
      pz      :     0.864733  p :     2.816239
      px      :     0.970037
      py      :     0.981469
      dz2     :     0.013105  d :     0.069780
      dxz     :     0.016480
      dyz     :     0.016615
      dx2y2   :     0.013714
      dxy     :     0.009868

  8 H s       :     0.948949  s :     0.948949

  9 O s       :     3.796103  s :     3.796103
      pz      :     1.186672  p :     4.620745
      px      :     1.733856
      py      :     1.700218
      dz2     :     0.001615  d :     0.015316
      dxz     :     0.004019
      dyz     :     0.005217
      dx2y2   :     0.001687
      dxy     :     0.002778

 10 C s       :     3.084450  s :     3.084450
      pz      :     1.002287  p :     2.965744
      px      :     0.975688
      py      :     0.987769
      dz2     :     0.006810  d :     0.042604
      dxz     :     0.011257
      dyz     :     0.005632
      dx2y2   :     0.009313
      dxy     :     0.009591

 11 C s       :     3.184465  s :     3.184465
      pz      :     0.977391  p :     3.018561
      px      :     1.022575
      py      :     1.018595
      dz2     :     0.002390  d :     0.026811
      dxz     :     0.007587
      dyz     :     0.005043
      dx2y2   :     0.006687
      dxy     :     0.005105

 12 C s       :     3.001079  s :     3.001079
      pz      :     1.051003  p :     3.170526
      px      :     1.059650
      py      :     1.059873
      dz2     :     0.003395  d :     0.028903
      dxz     :     0.009440
      dyz     :     0.005811
      dx2y2   :     0.008327
      dxy     :     0.001929

 13 H s       :     0.903788  s :     0.903788

 14 H s       :     0.892914  s :     0.892914

 15 H s       :     0.881723  s :     0.881723

 16 H s       :     0.955514  s :     0.955514

 17 H s       :     0.916967  s :     0.916967

 18 H s       :     0.904407  s :     0.904407

 19 H s       :     0.918268  s :     0.918268

 20 H s       :     0.910023  s :     0.910023

 21 H s       :     0.704562  s :     0.704562

 22 H s       :     0.920499  s :     0.920499

 23 H s       :     0.917237  s :     0.917237

 24 H s       :     0.886641  s :     0.886641

 25 H s       :     0.898055  s :     0.898055

 26 H s       :     0.890521  s :     0.890521


------------------------
MULLIKEN OVERLAP CHARGES
------------------------
B(  0-C ,  1-C ) :   0.9371 B(  0-C ,  2-C ) :  -0.1949 B(  0-C ,  7-C ) :  -0.1668 
B(  0-C , 13-H ) :   0.7234 B(  0-C , 14-H ) :   0.7029 B(  0-C , 15-H ) :   0.6995 
B(  0-C , 16-H ) :  -0.0527 B(  1-C ,  2-C ) :   1.0516 B(  1-C ,  4-C ) :  -0.1066 
B(  1-C ,  7-C ) :   0.4815 B(  1-C ,  8-H ) :  -0.0755 B(  1-C , 16-H ) :  -0.1022 
B(  1-C , 17-H ) :  -0.0666 B(  2-C ,  3-C ) :   0.6564 B(  2-C ,  6-C ) :  -0.1301 
B(  2-C , 16-H ) :   0.8012 B(  3-C ,  4-C ) :   0.7878 B(  3-C ,  6-C ) :  -0.1572 
B(  3-C ,  7-C ) :  -0.0867 B(  3-C , 10-C ) :  -0.0875 B(  3-C , 16-H ) :  -0.1458 
B(  3-C , 17-H ) :   0.5984 B(  3-C , 18-H ) :   0.6840 B(  4-C ,  5-H ) :   0.5406 
B(  4-C ,  6-C ) :   0.7443 B(  4-C , 10-C ) :   0.7287 B(  4-C , 11-C ) :  -0.1213 
B(  4-C , 12-C ) :  -0.2735 B(  4-C , 18-H ) :  -0.0607 B(  4-C , 20-H ) :  -0.0783 
B(  4-C , 23-H ) :  -0.0649 B(  6-C ,  7-C ) :   0.5607 B(  6-C ,  9-O ) :  -0.0979 
B(  6-C , 10-C ) :  -0.1033 B(  6-C , 19-H ) :   0.5828 B(  6-C , 20-H ) :   0.6424 
B(  7-C ,  8-H ) :   0.6458 B(  7-C ,  9-O ) :   0.6015 B(  7-C , 21-H ) :  -0.1012 
B(  8-H ,  9-O ) :  -0.0673 B(  9-O , 21-H ) :   0.5445 B( 10-C , 11-C ) :   1.5116 
B( 10-C , 12-C ) :   0.8351 B( 11-C , 12-C ) :  -0.1792 B( 11-C , 22-H ) :   0.6827 
B( 11-C , 23-H ) :   0.6809 B( 12-C , 22-H ) :  -0.0559 B( 12-C , 24-H ) :   0.6910 
B( 12-C , 25-H ) :   0.6955 B( 12-C , 26-H ) :   0.6925 B( 17-H , 18-H ) :  -0.0539 
B( 22-H , 23-H ) :  -0.1157 


                     *******************************
                     * LOEWDIN POPULATION ANALYSIS *
                     *******************************

----------------------
LOEWDIN ATOMIC CHARGES
----------------------
   0 C :   -0.321478
   1 C :   -0.078998
   2 C :   -0.152101
   3 C :   -0.218084
   4 C :   -0.126619
   5 H :    0.120550
   6 C :   -0.219811
   7 C :   -0.038929
   8 H :    0.112951
   9 O :   -0.323806
  10 C :   -0.049654
  11 C :   -0.268536
  12 C :   -0.324836
  13 H :    0.122236
  14 H :    0.127297
  15 H :    0.132841
  16 H :    0.116393
  17 H :    0.120188
  18 H :    0.126604
  19 H :    0.125616
  20 H :    0.125738
  21 H :    0.278085
  22 H :    0.115621
  23 H :    0.116067
  24 H :    0.126023
  25 H :    0.126058
  26 H :    0.130587

-------------------------------
LOEWDIN REDUCED ORBITAL CHARGES
-------------------------------
  0 C s       :     2.936065  s :     2.936065
      pz      :     1.097957  p :     3.312799
      px      :     1.098429
      py      :     1.116412
      dz2     :     0.020267  d :     0.072614
      dxz     :     0.013212
      dyz     :     0.008783
      dx2y2   :     0.019865
      dxy     :     0.010486

  1 C s       :     2.868738  s :     2.868738
      pz      :     1.013193  p :     3.103273
      px      :     1.017650
      py      :     1.072430
      dz2     :     0.017156  d :     0.106986
      dxz     :     0.015471
      dyz     :     0.020085
      dx2y2   :     0.029717
      dxy     :     0.024558

  2 C s       :     2.902644  s :     2.902644
      pz      :     1.043637  p :     3.159077
      px      :     1.040889
      py      :     1.074552
      dz2     :     0.016598  d :     0.090380
      dxz     :     0.015195
      dyz     :     0.014051
      dx2y2   :     0.027262
      dxy     :     0.017274

  3 C s       :     2.898888  s :     2.898888
      pz      :     1.077625  p :     3.230081
      px      :     1.071058
      py      :     1.081398
      dz2     :     0.020125  d :     0.089115
      dxz     :     0.020844
      dyz     :     0.012237
      dx2y2   :     0.010568
      dxy     :     0.025342

  4 C s       :     2.875042  s :     2.875042
      pz      :     1.068965  p :     3.150254
      px      :     1.036324
      py      :     1.044966
      dz2     :     0.013541  d :     0.101323
      dxz     :     0.023493
      dyz     :     0.024312
      dx2y2   :     0.015741
      dxy     :     0.024235

  5 H s       :     0.879450  s :     0.879450

  6 C s       :     2.920225  s :     2.920225
      pz      :     1.090086  p :     3.215147
      px      :     1.044338
      py      :     1.080724
      dz2     :     0.022574  d :     0.084439
      dxz     :     0.014295
      dyz     :     0.009780
      dx2y2   :     0.024347
      dxy     :     0.013442

  7 C s       :     2.876504  s :     2.876504
      pz      :     0.929458  p :     3.002767
      px      :     1.029529
      py      :     1.043781
      dz2     :     0.029918  d :     0.159658
      dxz     :     0.035448
      dyz     :     0.036774
      dx2y2   :     0.037458
      dxy     :     0.020060

  8 H s       :     0.887049  s :     0.887049

  9 O s       :     3.544163  s :     3.544163
      pz      :     1.267703  p :     4.753072
      px      :     1.758471
      py      :     1.726897
      dz2     :     0.003800  d :     0.026572
      dxz     :     0.007774
      dyz     :     0.009593
      dx2y2   :     0.001955
      dxy     :     0.003449

 10 C s       :     2.870411  s :     2.870411
      pz      :     0.997175  p :     3.070050
      px      :     1.085884
      py      :     0.986991
      dz2     :     0.016101  d :     0.109194
      dxz     :     0.028857
      dyz     :     0.014397
      dx2y2   :     0.025501
      dxy     :     0.024337

 11 C s       :     2.953179  s :     2.953179
      pz      :     1.075953  p :     3.245652
      px      :     1.094125
      py      :     1.075573
      dz2     :     0.006972  d :     0.069705
      dxz     :     0.019445
      dyz     :     0.010989
      dx2y2   :     0.018336
      dxy     :     0.013963

 12 C s       :     2.934003  s :     2.934003
      pz      :     1.096971  p :     3.319710
      px      :     1.122711
      py      :     1.100027
      dz2     :     0.007320  d :     0.071123
      dxz     :     0.023062
      dyz     :     0.016111
      dx2y2   :     0.020755
      dxy     :     0.003876

 13 H s       :     0.877764  s :     0.877764

 14 H s       :     0.872703  s :     0.872703

 15 H s       :     0.867159  s :     0.867159

 16 H s       :     0.883607  s :     0.883607

 17 H s       :     0.879812  s :     0.879812

 18 H s       :     0.873396  s :     0.873396

 19 H s       :     0.874384  s :     0.874384

 20 H s       :     0.874262  s :     0.874262

 21 H s       :     0.721915  s :     0.721915

 22 H s       :     0.884379  s :     0.884379

 23 H s       :     0.883933  s :     0.883933

 24 H s       :     0.873977  s :     0.873977

 25 H s       :     0.873942  s :     0.873942

 26 H s       :     0.869413  s :     0.869413


---------------------------------
LOEWDIN BOND ORDERS (THRESH 0.050000)
---------------------------------
B(  0-C ,  1-C ) :   1.1117 B(  0-C ,  2-C ) :   0.0891 B(  0-C ,  7-C ) :   0.0595 
B(  0-C , 13-H ) :   0.9310 B(  0-C , 14-H ) :   0.9211 B(  0-C , 15-H ) :   0.9195 
B(  1-C ,  2-C ) :   1.8718 B(  1-C ,  3-C ) :   0.0864 B(  1-C ,  6-C ) :   0.0594 
B(  1-C ,  7-C ) :   1.0181 B(  1-C ,  9-O ) :   0.0735 B(  2-C ,  3-C ) :   1.0967 
B(  2-C ,  4-C ) :   0.0519 B(  2-C ,  7-C ) :   0.0849 B(  2-C , 16-H ) :   0.8852 
B(  3-C ,  4-C ) :   1.0293 B(  3-C , 10-C ) :   0.0551 B(  3-C , 17-H ) :   0.8825 
B(  3-C , 18-H ) :   0.8944 B(  4-C ,  5-H ) :   0.8694 B(  4-C ,  6-C ) :   1.0280 
B(  4-C , 10-C ) :   1.0285 B(  4-C , 11-C ) :   0.0886 B(  4-C , 12-C ) :   0.0508 
B(  6-C ,  7-C ) :   1.0577 B(  6-C ,  9-O ) :   0.0742 B(  6-C , 10-C ) :   0.0621 
B(  6-C , 19-H ) :   0.8955 B(  6-C , 20-H ) :   0.8877 B(  7-C ,  8-H ) :   0.8768 
B(  7-C ,  9-O ) :   1.1996 B(  9-O , 21-H ) :   0.8898 B( 10-C , 11-C ) :   1.9787 
B( 10-C , 12-C ) :   1.0977 B( 11-C , 12-C ) :   0.0864 B( 11-C , 22-H ) :   0.9172 
B( 11-C , 23-H ) :   0.9174 B( 12-C , 24-H ) :   0.9187 B( 12-C , 25-H ) :   0.9290 
B( 12-C , 26-H ) :   0.9173 

------------------------------------------
LOEWDIN REDUCED ORBITAL POPULATIONS PER MO
-------------------------------------------
THRESHOLD FOR PRINTING IS 0.1%%
                      0         1         2         3         4         5   
                 -18.74062  -9.93622  -9.90278  -9.89962  -9.89680  -9.89227
                   2.00000   2.00000   2.00000   2.00000   2.00000   2.00000
                  --------  --------  --------  --------  --------  --------
 1 C  s               0.0       0.0       0.0       0.0       0.0      99.3
 1 C  py              0.0       0.1       0.0       0.0       0.0       0.0
 2 C  s               0.0       0.0       0.0       0.0       0.0       0.2
 3 C  s               0.0       0.0       0.0       0.0      99.6       0.0
 4 C  s               0.0       0.0      99.6       0.0       0.0       0.0
 6 C  px              0.0       0.1       0.0       0.0       0.0       0.0
 7 C  s               0.0      99.6       0.0       0.0       0.0       0.0
 7 C  py              0.0       0.0       0.0       0.0       0.0       0.1
 9 O  s              99.9       0.0       0.0       0.0       0.0       0.0
10 C  s               0.0       0.0       0.0      99.5       0.0       0.0
11 C  px              0.0       0.0       0.0       0.1       0.0       0.0

                      6         7         8         9        10        11   
                  -9.88533  -9.88498  -9.88178  -9.88022  -9.86767  -0.91827
                   2.00000   2.00000   2.00000   2.00000   2.00000   2.00000
                  --------  --------  --------  --------  --------  --------
 0 C  s               0.0       0.0      99.7       0.0       0.0       0.1
 1 C  s               0.2       0.0       0.0       0.0       0.0       1.1
 1 C  pz              0.0       0.0       0.0       0.0       0.0       0.2
 1 C  py              0.1       0.0       0.0       0.0       0.0       1.2
 2 C  s              99.3       0.0       0.0       0.0       0.0       0.2
 2 C  py              0.0       0.0       0.0       0.0       0.0       0.2
 4 C  s               0.0       0.0       0.0       0.0       0.0       0.1
 6 C  s               0.0      99.6       0.0       0.0       0.0       0.9
 6 C  pz              0.0       0.0       0.0       0.0       0.0       0.1
 6 C  px              0.0       0.0       0.0       0.0       0.0       1.2
 7 C  s               0.0       0.0       0.0       0.0       0.0      10.8
 7 C  pz              0.0       0.0       0.0       0.0       0.0       6.5
 7 C  px              0.0       0.1       0.0       0.0       0.0       1.2
 7 C  py              0.0       0.0       0.0       0.0       0.0       0.5
 7 C  dz2             0.0       0.0       0.0       0.0       0.0       0.3
 7 C  dxz             0.0       0.0       0.0       0.0       0.0       0.3
 7 C  dyz             0.0       0.0       0.0       0.0       0.0       0.1
 8 H  s               0.0       0.0       0.0       0.0       0.0       1.4
 9 O  s               0.0       0.0       0.0       0.0       0.0      57.1
 9 O  px              0.0       0.0       0.0       0.0       0.0       1.6
 9 O  py              0.0       0.0       0.0       0.0       0.0       1.7
10 C  px              0.0       0.0       0.0       0.0       0.1       0.0
11 C  s               0.0       0.0       0.0       0.0      99.6       0.0
12 C  s               0.0       0.0       0.0      99.7       0.0       0.0
19 H  s               0.0       0.1       0.0       0.0       0.0       0.2
20 H  s               0.0       0.1       0.0       0.0       0.0       0.1
21 H  s               0.0       0.0       0.0       0.0       0.0      12.1

                     12        13        14        15        16        17   
                  -0.76622  -0.72319  -0.67662  -0.66557  -0.61899  -0.60553
                   2.00000   2.00000   2.00000   2.00000   2.00000   2.00000
                  --------  --------  --------  --------  --------  --------
 0 C  s               1.5       7.2      12.1       0.0       9.0      11.8
 0 C  pz              0.3       0.7       0.2       0.0       0.1       0.4
 0 C  px              0.4       0.9       0.3       0.0       0.1       0.4
 0 C  py              0.0       0.1       0.1       0.1       0.0       0.0
 1 C  s               7.1      15.2       5.8       0.0       0.0       0.8
 1 C  pz              0.2       0.0       1.5       0.8       1.8       3.3
 1 C  px              0.7       0.0       2.3       0.2       3.0       4.1
 1 C  py              0.1       0.2       0.1       5.4       0.5       0.2
 1 C  dxz             0.1       0.2       0.1       0.0       0.0       0.0
 2 C  s               8.8       8.1       0.0       8.8       1.4       3.6
 2 C  pz              0.0       0.5       2.4       0.9       0.0       0.0
 2 C  px              0.2       1.0       2.9       0.6       0.0       0.2
 2 C  py              1.4       1.0       0.0       0.1       0.1       0.2
 2 C  dxz             0.1       0.1       0.0       0.1       0.0       0.0
 3 C  s              11.2       0.2       8.6      10.3       0.1       0.3
 3 C  pz              1.2       0.2       0.0       0.1       0.3       0.1
 3 C  px              0.0       2.0       0.0       0.6       0.9       1.8
 3 C  py              0.7       0.5       0.4       1.0       0.8       0.6
 4 C  s              15.3       3.8       4.4       0.5       4.5       3.1
 4 C  pz              0.4       0.4       0.5       1.8       0.6       0.0
 4 C  px              0.1       2.4       3.3       0.1       0.8       0.2
 4 C  py              0.4       0.0       0.0       5.6       0.1       0.0
 4 C  dxy             0.0       0.0       0.0       0.1       0.0       0.0
 5 H  s               2.5       0.9       0.9       0.1       2.2       0.6
 6 C  s               7.0       0.0       3.1      19.2       0.1       0.1
 6 C  pz              0.3       0.2       0.4       0.1       0.6       0.2
 6 C  px              0.1       1.5       0.2       0.7       1.7       1.5
 6 C  py              1.4       0.0       0.1       0.0       0.0       0.0
 7 C  s               2.6       2.6       0.1       9.7       2.3       2.2
 7 C  pz              0.5       0.6       0.3       1.3       0.1       0.1
 7 C  px              1.5       0.0       1.7       3.1       0.2       0.0
 7 C  py              1.3       2.6       0.8       0.5       0.0       0.2
 8 H  s               0.4       0.5       0.1       2.8       0.5       0.4
 9 O  s               2.4       1.2       0.0       1.9       0.4       0.4
 9 O  pz              0.3       0.5       0.1       2.8       1.0       1.2
 9 O  px              0.0       0.0       0.0       0.2       0.0       0.0
10 C  s               9.0      14.6       6.1       0.1       0.4       0.6
10 C  pz              0.2       0.0       1.3       0.0       7.1       0.8
10 C  px              0.8       0.1       3.5       0.1       0.4      10.1
10 C  py              0.0       0.0       0.3       0.5       5.8       2.3
10 C  dx2y2           0.0       0.0       0.0       0.0       0.1       0.1
11 C  s               2.4       7.2       6.7       0.1       4.8      15.8
11 C  pz              0.0       0.1       0.2       0.0       0.3       0.0
11 C  px              1.2       1.9       0.6       0.0       0.2       0.1
11 C  py              0.1       0.3       0.3       0.0       0.1       0.0
12 C  s               2.9       6.4       7.5       0.6      19.6       5.7
12 C  pz              0.6       0.8       0.2       0.0       0.3       0.1
12 C  px              0.0       0.1       0.2       0.0       0.1       0.4
12 C  py              0.4       0.7       0.2       0.0       0.3       0.2
13 H  s               0.3       1.4       2.5       0.0       2.4       3.3
14 H  s               0.2       1.3       2.6       0.0       2.4       3.5
15 H  s               0.2       1.3       2.5       0.0       2.4       3.4
16 H  s               1.2       1.4       0.0       2.1       0.2       0.6
17 H  s               1.9       0.1       2.1       2.6       0.1       0.1
18 H  s               2.0       0.0       1.6       2.7       0.0       0.2
19 H  s               1.0       0.0       0.7       4.3       0.0       0.1
20 H  s               1.5       0.0       0.4       4.5       0.1       0.1
21 H  s               0.5       0.4       0.0       1.5       0.4       0.4
22 H  s               0.3       1.1       1.4       0.0       0.7       4.0
23 H  s               0.4       1.1       1.0       0.0       1.7       4.1
24 H  s               0.7       1.0       1.3       0.1       5.7       2.0
25 H  s               0.4       1.2       1.9       0.1       5.1       1.1
26 H  s               0.6       1.1       1.4       0.3       5.6       1.8

                     18        19        20        21        22        23   
                  -0.56225  -0.53348  -0.49135  -0.46617  -0.43202  -0.42882
                   2.00000   2.00000   2.00000   2.00000   2.00000   2.00000
                  --------  --------  --------  --------  --------  --------
 0 C  s               0.5       2.9       0.0       0.0       0.8       0.2
 0 C  pz              0.2       1.1       0.1       0.1       1.8       2.7
 0 C  px              0.3       1.2       0.2       0.0       4.7       1.5
 0 C  py              0.7       0.5       0.8       0.7       1.8       0.0
 1 C  s               0.9       4.1       1.9       0.0       1.2       1.3
 1 C  pz              0.9       0.4       0.0       0.3       3.5       0.0
 1 C  px              1.6       0.2       0.1       0.1       1.3       1.4
 1 C  py              9.0       1.4       4.4       2.7       0.1       0.7
 2 C  s               4.8       0.5       4.9       0.3       0.1       0.1
 2 C  pz              3.1       2.1       0.0       0.6       0.7       0.1
 2 C  px              3.2       1.8       0.0       1.4       0.1       4.4
 2 C  py              0.1       2.2       9.9       0.2       4.4       0.1
 3 C  s               8.2       2.7       0.3       0.4       0.0       0.2
 3 C  pz              2.2       0.6       1.5       0.2       1.2      14.0
 3 C  px              1.0       1.8       0.0       0.0       3.8       0.1
 3 C  py              0.1       3.1       4.6       2.8       3.6       0.0
 4 C  s               0.3       5.5       0.0       2.5       0.0       0.3
 4 C  pz              2.6       0.1       1.5       8.0       0.6       5.9
 4 C  px              0.0       3.6       4.3       0.7       3.8       0.7
 4 C  py              4.4       0.5       0.0       4.4       0.0       2.5
 4 C  dyz             0.0       0.1       0.0       0.0       0.0       0.0
 5 H  s               0.1       2.1       0.1       7.2       0.9       1.9
 6 C  s               3.5       8.1       0.0       0.1       0.0       0.3
 6 C  pz              0.0       0.9       0.2       7.6       4.2       0.4
 6 C  px              3.9       0.2       0.2       0.1       0.6       0.0
 6 C  py              0.0       3.2       1.5       0.4       1.2       7.1
 7 C  s               7.9       0.6       0.2       0.0       0.1       0.0
 7 C  pz              1.0       0.0       0.3       3.0       9.3       0.1
 7 C  px              3.1       4.7       2.2       0.9       1.2       0.0
 7 C  py              0.6       3.8      11.5       1.8       0.0       0.1
 7 C  dx2y2           0.0       0.2       0.0       0.0       0.0       0.0
 8 H  s               5.2       0.1       1.7       0.0       2.6       0.0
 9 O  s               0.6       0.0       0.6       0.0       0.3       0.1
 9 O  pz             10.9       1.4      13.6       9.0       5.6       0.3
 9 O  px              0.0       0.2       0.1       0.1       1.6       0.1
 9 O  py              0.1       0.2       2.2       0.4       0.1       0.0
10 C  s               0.0       1.3       2.0       5.4       1.3       1.4
10 C  pz              0.0       1.3       0.3       0.3       2.3       0.2
10 C  px              0.6       5.8       1.7       0.4       1.3       4.7
10 C  py              0.4       0.0       0.1       0.2       0.5       0.1
11 C  s               0.4       4.1       1.6       1.2       0.3       1.9
11 C  pz              0.0       0.1       0.0       0.8       3.7       2.0
11 C  px              0.1       1.9       2.6       4.0       0.8       8.7
11 C  py              0.0       0.0       0.1       1.3       2.9       3.7
12 C  s               0.0       0.2       0.6       2.1       0.2       0.0
12 C  pz              0.0       0.4       1.2       4.7       1.1       0.1
12 C  px              0.1       0.3       0.2       0.1       2.2       6.2
12 C  py              0.1       0.2       0.5       4.3       2.7       0.3
12 C  dyz             0.0       0.0       0.0       0.2       0.1       0.0
13 H  s               0.0       1.8       0.5       0.2       2.1       0.2
14 H  s               0.4       1.4       0.0       0.2       0.5       1.2
15 H  s               0.5       1.1       0.0       0.0       1.2       0.4
16 H  s               1.9       0.9       8.1       0.5       1.5       0.0
17 H  s               3.2       1.7       1.7       0.0       0.0       6.0
18 H  s               4.0       1.3       0.2       1.1       3.3       0.4
19 H  s               1.3       4.5       0.3       0.4       0.2       3.4
20 H  s               1.5       3.4       0.1       2.7       2.0       0.0
21 H  s               3.2       0.4       4.4       2.5       1.3       0.2
22 H  s               0.2       2.8       2.0       1.6       0.0       2.5
23 H  s               0.1       1.1       0.9       2.9       3.8       6.0
24 H  s               0.0       0.1       0.2       1.1       1.5       1.9
25 H  s               0.0       0.5       1.0       3.0       0.0       0.9
26 H  s               0.0       0.1       0.2       1.9       1.3       0.2

                     24        25        26        27        28        29   
                  -0.40502  -0.40092  -0.38876  -0.38236  -0.36717  -0.36221
                   2.00000   2.00000   2.00000   2.00000   2.00000   2.00000
                  --------  --------  --------  --------  --------  --------
 0 C  pz              1.5       4.9       0.2       5.1      16.4       1.6
 0 C  px              1.2       3.6       1.0       2.1      11.7       8.8
 0 C  py              4.5       1.7       4.7       3.3       3.8       0.3
 0 C  dz2             0.0       0.0       0.0       0.0       0.2       0.0
 0 C  dxz             0.0       0.1       0.0       0.0       0.0       0.0
 0 C  dyz             0.0       0.0       0.0       0.1       0.1       0.0
 1 C  s               0.1       1.8       0.1       0.3       0.5       0.1
 1 C  pz              1.0       0.3       2.7       0.7       1.9       2.3
 1 C  px              2.5       0.9       0.5       3.0       2.3       0.5
 1 C  py              2.1       4.8       0.8       2.1       0.0       1.0
 1 C  dz2             0.0       0.0       0.0       0.0       0.2       0.0
 1 C  dyz             0.0       0.0       0.0       0.0       0.0       0.2
 1 C  dxy             0.0       0.0       0.0       0.0       0.1       0.1
 2 C  s               0.0       1.6       0.6       0.0       0.0       0.6
 2 C  pz              4.9       2.9       0.1       0.4       0.1       0.2
 2 C  px              0.3       2.1       1.0       0.4       1.7       0.0
 2 C  py              0.3       2.4       7.1       0.9       5.6       6.8
 2 C  dx2y2           0.0       0.1       0.0       0.0       0.0       0.0
 3 C  s               0.2       0.7       0.1       0.1       0.2       0.0
 3 C  pz              0.9       0.8       2.8       2.1       1.4       2.0
 3 C  px              7.9       6.1       0.0       2.1       0.1       1.6
 3 C  py              0.8       0.4       0.4       5.2       0.6       4.0
 3 C  dxy             0.0       0.1       0.1       0.0       0.0       0.1
 4 C  s               0.0       0.0       2.2       0.0       0.2       0.1
 4 C  pz              3.7       1.1       0.2       0.3       0.1       0.5
 4 C  px              0.0       1.6       3.2       0.0       0.0       0.0
 4 C  py              4.8       3.8       0.6       0.2       0.2       0.8
 4 C  dyz             0.0       0.1       0.0       0.0       0.0       0.0
 4 C  dx2y2           0.0       0.1       0.0       0.1       0.0       0.0
 5 H  s               0.1       2.5       0.8       0.1       0.1       0.1
 6 C  s               0.1       0.4       0.0       0.7       0.1       0.0
 6 C  pz              0.4       1.3       1.1       4.0       0.3       3.3
 6 C  px             15.3       1.8       0.8       0.3       2.4       0.4
 6 C  py              0.0       0.2       1.6       1.7       2.6       1.3
 6 C  dxz             0.0       0.1       0.1       0.0       0.0       0.0
 6 C  dx2y2           0.1       0.1       0.0       0.1       0.1       0.0
 7 C  s               0.9       1.2       0.0       0.0       1.3       0.5
 7 C  pz              0.6       1.1       3.9       4.3       0.5       6.7
 7 C  px              9.8       0.7       1.5       0.0       0.8       1.7
 7 C  py              2.2       0.7       0.0       3.8       0.0       3.3
 7 C  dxz             0.1       0.1       0.1       0.0       0.0       0.0
 7 C  dyz             0.0       0.1       0.0       0.0       0.1       0.1
 7 C  dxy             0.0       0.0       0.0       0.2       0.0       0.0
 8 H  s               0.4       0.7       2.2       3.8       0.6       5.1
 9 O  s               0.2       1.0       0.2       0.6       1.0       1.3
 9 O  pz              3.5       3.6       1.2       0.1       1.4       1.0
 9 O  px              2.7       0.7       1.4       0.8       0.9       6.9
 9 O  py              0.5       1.3       0.2       2.9       1.5       4.4
10 C  s               0.0       0.1       0.2       0.0       0.0       0.0
10 C  pz              1.7       2.2       3.2       0.8       0.5       1.0
10 C  px              0.3       0.9       0.3       0.0       0.9       0.1
10 C  py              3.9       2.2       0.8       2.6       0.0       0.8
10 C  dxz             0.0       0.0       0.1       0.0       0.0       0.0
11 C  s               0.0       0.3       0.0       0.0       0.0       0.0
11 C  pz              0.1       1.8       9.2       0.0       0.1       0.1
11 C  px              0.0       8.8       5.0       0.5       1.0       0.0
11 C  py              0.9       0.3       3.6       0.3       0.1       0.3
12 C  s               0.0       0.2       0.1       0.0       0.0       0.0
12 C  pz              3.6       1.6       0.0       8.2       0.3       2.5
12 C  px              0.3       0.1       5.1       0.4       0.6       1.5
12 C  py              2.3       1.9       1.6       6.8       3.0       5.6
12 C  dx2y2           0.0       0.0       0.0       0.1       0.0       0.1
13 H  s               1.9       0.1       2.3       1.5       2.5       0.1
14 H  s               0.2       2.5       0.6       1.6      13.2       1.1
15 H  s               1.8       1.3       0.1       3.2       5.6       5.4
16 H  s               0.3       2.8       4.8       0.2       3.7       2.5
17 H  s               1.9       0.1       1.6       3.2       0.5       0.0
18 H  s               0.3       1.7       0.6       3.1       0.2       3.4
19 H  s               0.1       0.4       0.5       3.0       2.6       0.2
20 H  s               2.0       1.8       0.4       1.1       0.0       1.2
21 H  s               0.8       1.5       0.2       0.1       0.9       0.1
22 H  s               0.0       5.6       6.7       0.2       0.4       0.0
23 H  s               0.1       0.1       4.1       0.0       0.0       0.0
24 H  s               1.4       0.1       1.6       3.8       0.7       2.6
25 H  s               0.3       0.8       1.1       0.8       0.0       0.0
26 H  s               1.6       0.6       1.2       5.8       1.5       3.3

                     30        31        32        33        34        35   
                  -0.35426  -0.34619  -0.33455  -0.32773  -0.32331  -0.30205
                   2.00000   2.00000   2.00000   2.00000   2.00000   2.00000
                  --------  --------  --------  --------  --------  --------
 0 C  s               0.0       0.0       0.1       0.0       0.0       0.0
 0 C  pz              0.8       1.3      10.5       0.6       0.3       0.0
 0 C  px              0.4       1.6       6.3       1.4       0.2       2.0
 0 C  py              3.2       8.2       0.6      19.0       0.3       0.2
 0 C  dxz             0.0       0.0       0.1       0.0       0.0       0.0
 0 C  dx2y2           0.0       0.2       0.0       0.3       0.0       0.0
 0 C  dxy             0.0       0.1       0.0       0.1       0.0       0.0
 1 C  s               0.0       0.3       0.0       0.0       0.0       0.2
 1 C  pz              0.0       0.0       7.6       0.1       0.1       0.3
 1 C  px              0.1       0.0       6.5       0.1       0.1       2.8
 1 C  py              0.1       0.7       0.8       1.5       0.1       0.5
 1 C  dx2y2           0.0       0.2       0.2       0.0       0.0       0.0
 2 C  s               0.1       0.2       0.3       0.1       0.0       0.0
 2 C  pz              0.5       0.5       0.4       2.5       0.5       0.8
 2 C  px              0.6       0.6       1.5       4.0       0.9       1.0
 2 C  py              0.1       2.4       0.6       2.0       0.0       1.2
 2 C  dyz             0.0       0.0       0.1       0.0       0.0       0.2
 2 C  dxy             0.0       0.0       0.2       0.0       0.0       0.1
 3 C  s               0.2       0.2       0.4       0.1       0.0       0.2
 3 C  pz              2.8       4.5       1.2       4.2       0.1       5.8
 3 C  px              6.8       2.6       2.3       1.4       0.2       0.1
 3 C  py              2.2       0.1       2.1       3.0       0.0      10.9
 3 C  dxy             0.0       0.0       0.0       0.0       0.0       0.4
 4 C  s               0.1       0.1       0.0       0.0       0.0       0.0
 4 C  pz              0.1       1.3       3.7       0.3       1.6       3.9
 4 C  px              0.0       0.1       8.1       0.2       0.8       0.1
 4 C  py              0.3       1.8       0.3       1.9       0.8      10.0
 4 C  dxy             0.0       0.0       0.0       0.0       0.0       0.2
 5 H  s               0.1       0.0       4.6       0.1       0.6       0.0
 6 C  s               0.1       0.1       0.1       0.2       0.0       0.0
 6 C  pz              2.8       2.5       3.1       6.3       0.1       6.5
 6 C  px              0.3       2.6       0.5       0.7       0.1       0.2
 6 C  py              2.6       7.9       3.4       3.9       0.4       7.9
 6 C  dz2             0.0       0.1       0.0       0.1       0.0       0.1
 6 C  dxz             0.0       0.0       0.0       0.2       0.0       0.2
 6 C  dx2y2           0.0       0.0       0.0       0.0       0.0       0.2
 7 C  s               0.0       0.2       0.2       0.3       0.0       0.1
 7 C  pz              0.2       0.0       0.0       3.1       0.0       1.0
 7 C  px              0.0       0.8       0.6       2.3       0.0       2.1
 7 C  py              0.9       1.7       1.9       0.2       0.3       0.3
 7 C  dxz             0.1       0.1       0.1       0.2       0.0       0.1
 7 C  dxy             0.0       0.0       0.0       0.0       0.0       0.2
 8 H  s               0.7       0.0       0.0       2.9       0.1       0.3
 9 O  s               0.5       0.0       0.2       0.1       0.3       1.5
 9 O  pz              0.3       0.8       0.0       2.0       0.1       0.7
 9 O  px              0.9       0.8       0.1       0.7       1.0       1.3
 9 O  py              0.0       2.0       4.0       0.2       0.1      15.4
10 C  s               0.7       0.0       0.1       0.0       0.1       0.0
10 C  pz              1.5       0.1       0.1       0.4       0.8       0.7
10 C  px              2.7       0.0       1.6       0.3       8.8       0.5
10 C  py              3.2       0.2       0.6       0.0       1.8       0.6
10 C  dz2             0.0       0.1       0.1       0.0       0.1       0.0
10 C  dxz             0.1       0.0       0.1       0.0       0.1       0.0
10 C  dyz             0.0       0.0       0.0       0.0       0.1       0.0
10 C  dx2y2           0.1       0.0       0.0       0.0       0.2       0.0
10 C  dxy             0.0       0.1       0.1       0.0       0.1       0.1
11 C  s               0.1       0.0       0.2       0.0       0.5       0.0
11 C  pz              0.1       0.0       1.7       0.1       7.3       0.3
11 C  px              2.8       0.2       5.7       0.2       2.5       0.2
11 C  py              0.2       0.1       0.6       0.1       7.6       0.4
11 C  dxz             0.0       0.0       0.1       0.0       0.0       0.0
11 C  dyz             0.0       0.0       0.0       0.0       0.1       0.0
11 C  dx2y2           0.0       0.0       0.0       0.0       0.1       0.0
12 C  s               0.1       0.0       0.0       0.0       0.2       0.0
12 C  pz             13.0       6.7       0.0       0.0       0.4       0.4
12 C  px             13.2       1.3       0.0       0.1      23.0       0.0
12 C  py              1.1       9.6       1.1       0.6       3.2       0.0
12 C  dxz             0.2       0.0       0.0       0.0       0.6       0.0
12 C  dyz             0.0       0.0       0.0       0.0       0.1       0.0
12 C  dx2y2           0.1       0.2       0.0       0.0       0.0       0.0
13 H  s               1.8       4.8       0.7      11.5       0.2       0.2
14 H  s               1.3       0.0       2.7       2.6       0.4       0.0
15 H  s               0.0       3.9       0.4       4.0       0.1       1.3
16 H  s               0.2       1.5       0.0       2.4       0.0       1.0
17 H  s               4.8       3.6       0.2       1.3       0.2       0.5
18 H  s               4.1       0.6       2.0       0.1       0.1       6.6
19 H  s               1.5       4.7       0.7       3.8       0.1       2.3
20 H  s               2.0       2.4       1.5       4.3       0.3       4.3
21 H  s               0.5       0.0       0.1       0.5       0.1       0.4
22 H  s               0.6       0.1       4.5       0.1       0.8       0.1
23 H  s               0.5       0.0       0.9       0.0       9.4       0.0
24 H  s               0.8       4.3       0.0       0.1      10.1       0.2
25 H  s              13.5       0.3       0.0       0.0       8.6       0.0
26 H  s               0.3       7.7       0.5       0.2       1.8       0.2

                     36        37        38        39        40        41   
                  -0.29402  -0.28015  -0.26374  -0.22426  -0.21165  -0.20424
                   2.00000   2.00000   2.00000   2.00000   2.00000   2.00000
                  --------  --------  --------  --------  --------  --------
 0 C  s               0.1       0.4       0.0       0.0       0.0       0.1
 0 C  pz              0.3       2.5       0.1       0.1       0.1       0.9
[...]
 2 C  dz2             0.0       0.3       2.8       0.0       1.7       0.0
 2 C  dxz             1.2       0.1       3.0       0.2       7.1       0.0
 2 C  dyz             7.7       1.4       0.0       0.2       0.0       0.0
 2 C  dx2y2           0.1       0.8       4.0       0.7       8.1       0.0
 2 C  dxy             8.8       1.5       0.1       0.2       0.0       0.0
 3 C  s               0.1       0.0       0.3       0.1       0.3       0.0
 3 C  pz              0.2       0.0       0.1       0.0       0.1       0.0
 3 C  px              0.3       0.4       0.1       0.1       0.2       0.0
 3 C  py              0.0       0.2       0.0       0.0       0.1       0.0
 3 C  dz2             0.8       0.3       0.1       0.2       0.0       0.0
 3 C  dxz             1.1       0.5       0.2       0.1       0.4       0.0
 3 C  dyz             0.1       0.9       0.5       0.0       1.8       0.0
 3 C  dx2y2           1.2       0.9       0.1       0.0       0.0       0.0
 3 C  dxy             1.2       0.2       3.0       0.0       2.4       0.0
 4 C  s               0.1       0.2       0.0       0.0       0.0       0.0
 4 C  pz              0.0       0.8       0.1       0.0       0.0       0.0
 4 C  px              0.1       1.0       0.3       0.0       0.0       0.0
 4 C  py              0.3       0.0       0.1       0.0       0.0       0.0
 4 C  dz2             0.0       0.5       0.0       0.0       0.4       0.0
 4 C  dxz             3.5       2.8       0.9       0.1       0.0       0.0
 4 C  dyz             0.2       1.6       2.3       0.1       0.4       0.0
 4 C  dx2y2           0.0       0.1       1.1       0.0       0.2       0.0
 4 C  dxy             0.2       5.5       0.4       0.0       0.0       0.0
 6 C  s               0.0       0.0       0.1       0.0       0.0       0.0
 6 C  px              0.5       0.0       0.0       0.1       0.1       0.1
 6 C  dz2             0.4       0.1       0.8       0.1       0.0       0.0
 6 C  dxz             0.1       0.1       2.6       0.1       0.2       0.1
 6 C  dyz             0.2       0.0       0.0       0.0       0.0       0.0
 6 C  dx2y2           1.9       0.0       0.8       0.9       0.1       0.1
 6 C  dxy             0.3       0.0       0.0       0.0       1.6       0.0
 7 C  s               0.0       0.0       0.3       0.2       0.2       2.1
 7 C  pz              0.1       0.0       0.2       0.1       0.1       2.6
 7 C  px              0.1       0.1       0.5       0.2       0.0       0.8
 7 C  py              1.0       0.3       0.2       0.0       0.4       0.5
 7 C  dz2             0.0       0.2       1.8       0.1       0.0       3.7
 7 C  dxz             0.0       0.6       4.0       0.2       1.2       5.1
 7 C  dyz             0.4       0.2       0.7       3.5       4.4       2.9
 7 C  dx2y2           5.9       0.1       1.3       3.1       3.3       0.1
 7 C  dxy             0.3       0.0       0.9       2.3       3.8       0.8
 8 H  s               0.0       0.0       0.0       0.0       0.1       0.1
 9 O  s               0.1       0.0       0.2       1.6       0.3       4.2
 9 O  pz              0.0       0.0       0.0       0.3       0.1       4.2
 9 O  px              0.0       0.0       0.2       0.7       0.0       0.5
 9 O  py              0.0       0.0       0.4       0.1       0.4       0.1
 9 O  dz2             5.2       0.8      11.1      22.6       6.9      13.7
 9 O  dxz             1.0       1.4      11.7       0.0       7.8      32.2
 9 O  dyz             0.6       0.6       4.2      40.8       0.2      20.3
 9 O  dx2y2           0.0       2.2      13.8       2.4       7.2       0.6
 9 O  dxy             0.0       0.0       0.3       7.6       4.4       3.7
10 C  pz              0.0       0.5       0.1       0.0       0.0       0.0
10 C  px              0.2       0.1       0.1       0.0       0.0       0.0
10 C  py              0.0       0.3       0.0       0.0       0.0       0.0
10 C  dz2             0.4       3.2       0.2       0.0       0.0       0.0
10 C  dxz             2.6      10.6       2.3       0.1       0.0       0.0
10 C  dyz             0.6       6.0       0.2       0.0       0.1       0.0
10 C  dx2y2           0.8      14.8       2.1       0.0       0.0       0.0
10 C  dxy             2.5       2.5       0.5       0.0       0.0       0.0
11 C  pz              0.0       0.2       0.0       0.0       0.0       0.0
11 C  px              0.1       0.0       0.0       0.0       0.0       0.0
11 C  py              0.0       0.2       0.0       0.0       0.0       0.0
11 C  dz2             0.3       0.9       0.1       0.0       0.0       0.0
11 C  dxz             0.6       5.8       0.6       0.0       0.0       0.0
11 C  dyz             0.4       2.2       0.4       0.0       0.0       0.0
11 C  dx2y2           1.5       4.2       0.5       0.0       0.0       0.0
11 C  dxy             0.0       2.6       0.2       0.0       0.0       0.0
12 C  s               0.1       0.6       0.1       0.0       0.0       0.0
12 C  pz              0.1       0.9       0.1       0.0       0.0       0.0
12 C  py              0.1       0.5       0.0       0.0       0.0       0.0
12 C  dz2             0.1       1.0       0.1       0.0       0.0       0.0
12 C  dxz             0.2       0.0       0.0       0.0       0.0       0.0
12 C  dyz             0.6       3.6       0.3       0.0       0.0       0.0
12 C  dx2y2           0.3       1.6       0.2       0.0       0.0       0.0
16 H  s               0.1       0.0       0.4       0.0       0.5       0.0
18 H  s               0.0       0.0       0.1       0.0       0.1       0.0
20 H  s               0.0       0.0       0.1       0.0       0.0       0.0
21 H  s               0.4       0.0       0.5       5.2       1.1       0.9
22 H  s               0.1       0.8       0.1       0.0       0.0       0.0
23 H  s               0.1       0.7       0.1       0.0       0.0       0.0



                      *****************************
                      * MAYER POPULATION ANALYSIS *
                      *****************************

  NA   - Mulliken gross atomic population
  ZA   - Total nuclear charge
  QA   - Mulliken gross atomic charge
  VA   - Mayer's total valence
  BVA  - Mayer's bonded valence
  FA   - Mayer's free valence

  ATOM       NA         ZA         QA         VA         BVA        FA
  0 C      6.2108     6.0000    -0.2108     3.9437     3.9437     0.0000
  1 C      6.0412     6.0000    -0.0412     4.1347     4.1347    -0.0000
  2 C      6.2396     6.0000    -0.2396     4.0678     4.0678     0.0000
  3 C      6.0394     6.0000    -0.0394     3.9639     3.9639     0.0000
  4 C      6.1225     6.0000    -0.1225     4.1327     4.1327     0.0000
  5 H      0.9469     1.0000     0.0531     0.9540     0.9540    -0.0000
  6 C      6.0638     6.0000    -0.0638     3.9713     3.9713    -0.0000
  7 C      5.9304     6.0000     0.0696     4.1022     4.1022    -0.0000
  8 H      0.9489     1.0000     0.0511     0.9623     0.9623    -0.0000
  9 O      8.4322     8.0000    -0.4322     1.9915     1.9915    -0.0000
 10 C      6.0928     6.0000    -0.0928     4.3621     4.3621     0.0000
 11 C      6.2298     6.0000    -0.2298     3.9371     3.9371    -0.0000
 12 C      6.2005     6.0000    -0.2005     3.9029     3.9029    -0.0000
 13 H      0.9038     1.0000     0.0962     0.9682     0.9682     0.0000
 14 H      0.8929     1.0000     0.1071     0.9525     0.9525    -0.0000
 15 H      0.8817     1.0000     0.1183     0.9533     0.9533    -0.0000
 16 H      0.9555     1.0000     0.0445     0.9646     0.9646    -0.0000
 17 H      0.9170     1.0000     0.0830     0.9510     0.9510    -0.0000
 18 H      0.9044     1.0000     0.0956     0.9542     0.9542     0.0000
 19 H      0.9183     1.0000     0.0817     0.9637     0.9637     0.0000
 20 H      0.9100     1.0000     0.0900     0.9608     0.9608    -0.0000
 21 H      0.7046     1.0000     0.2954     0.8958     0.8958    -0.0000
 22 H      0.9205     1.0000     0.0795     0.9507     0.9507    -0.0000
 23 H      0.9172     1.0000     0.0828     0.9506     0.9506    -0.0000
 24 H      0.8866     1.0000     0.1134     0.9721     0.9721    -0.0000
 25 H      0.8981     1.0000     0.1019     0.9638     0.9638    -0.0000
 26 H      0.8905     1.0000     0.1095     0.9567     0.9567    -0.0000

  Mayer bond orders larger than 0.100000
B(  0-C ,  1-C ) :   1.1450 B(  0-C , 13-H ) :   0.9444 B(  0-C , 14-H ) :   0.9276 
B(  0-C , 15-H ) :   0.9271 B(  1-C ,  2-C ) :   1.8795 B(  1-C ,  7-C ) :   0.9805 
B(  2-C ,  3-C ) :   1.0704 B(  2-C , 16-H ) :   0.9383 B(  3-C ,  4-C ) :   1.0829 
B(  3-C , 17-H ) :   0.8754 B(  3-C , 18-H ) :   0.9102 B(  4-C ,  5-H ) :   0.8704 
B(  4-C ,  6-C ) :   1.0598 B(  4-C , 10-C ) :   1.0306 B(  6-C ,  7-C ) :   1.0749 
B(  6-C , 19-H ) :   0.8929 B(  6-C , 20-H ) :   0.9022 B(  7-C ,  8-H ) :   0.8907 
B(  7-C ,  9-O ) :   1.0214 B(  9-O , 21-H ) :   0.8509 B( 10-C , 11-C ) :   2.0345 
B( 10-C , 12-C ) :   1.1289 B( 11-C , 22-H ) :   0.9086 B( 11-C , 23-H ) :   0.9081 
B( 12-C , 24-H ) :   0.9174 B( 12-C , 25-H ) :   0.9355 B( 12-C , 26-H ) :   0.9193 


-------
TIMINGS
-------

Total SCF time: 0 days 0 hours 0 min 9 sec 

Total time                  ....       9.600 sec
Sum of individual times     ....       9.180 sec  ( 95.6%)

SCF preparation             ....       0.162 sec  (  1.7%)
Fock matrix formation       ....       8.325 sec  ( 86.7%)
  Startup                   ....       0.057 sec  (  0.7% of F)
  Split-RI-J                ....       3.593 sec  ( 43.2% of F)
  XC integration            ....       4.234 sec  ( 50.9% of F)
    XC Preparation          ....       0.000 sec  (  0.0% of XC)
    Basis function eval.    ....       1.393 sec  ( 32.9% of XC)
    Density eval.           ....       0.840 sec  ( 19.8% of XC)
    XC-Functional eval.     ....       0.272 sec  (  6.4% of XC)
    XC-Potential eval.      ....       1.078 sec  ( 25.5% of XC)
Diagonalization             ....       0.000 sec  (  0.0%)
Density matrix formation    ....       0.155 sec  (  1.6%)
Total Energy calculation    ....       0.030 sec  (  0.3%)
Population analysis         ....       0.092 sec  (  1.0%)
Orbital Transformation      ....       0.050 sec  (  0.5%)
Orbital Orthonormalization  ....       0.000 sec  (  0.0%)
DIIS solution               ....       0.282 sec  (  2.9%)
  MO trafo                  ....       0.000 sec  (  0.0 % of DIIS)
  Orb grad                  ....       0.000 sec  (  0.0 % of DIIS)
  Energy W gradient         ....       0.000 sec  (  0.0 % of DIIS)
  DIIS error                ....       0.005 sec  (  1.8 % of DIIS)
  DIIS work                 ....       0.235 sec  ( 83.4 % of DIIS)
  Form Q                    ....       0.000 sec  (  0.0 % of DIIS)
  Form QpQm                 ....       0.000 sec  (  0.0 % of DIIS)
  Exp/Cayley                ....       0.000 sec  (  0.0 % of DIIS)
  Orb update                ....       0.000 sec  (  0.0 % of DIIS)
  Wake-sleep                ....       0.014 sec  (  4.9 % of DIIS)
SOSCF solution              ....       0.085 sec  (  0.9%)
  MO trafo                  ....       0.045 sec  ( 52.6 % of SOSCF)
  Orb grad                  ....       0.001 sec  (  1.4 % of SOSCF)
  Rot update                ....       0.021 sec  ( 25.0 % of SOSCF)
  Step                      ....       0.018 sec  ( 20.9 % of SOSCF)
Finished LeanSCF after   9.7 sec

Maximum memory used throughout the entire LEANSCF-calculation: 18.7 MB


-------------------------------------------------------------------------------
                          DFT DISPERSION CORRECTION                            
                                                                               
                                DFTD4 V3.4.0                                   
-------------------------------------------------------------------------------
The PBE functional is recognized
Active option DFTDOPT                   ...         5   

-------------------------   ----------------
Dispersion correction           -0.029524180
-------------------------   ----------------

------------------   -----------------
gCP correction             0.118298291
------------------   -----------------

-------------------------   --------------------
FINAL SINGLE POINT ENERGY      -464.784285595254
-------------------------   --------------------


------------------------------------------------------------------------------
                              ORCA PROPERTY CALCULATIONS
------------------------------------------------------------------------------

GBWName                                 ... sp.gbw
Number of atoms                         ...     27
Number of basis functions               ...    186
Max core memory                         ...   1024 MB

Electric properties:
Dipole moment                           ... YES
Quadrupole moment                       ...  NO
Static polarizability (Dipole/Dipole)   ...  NO
Static polarizability (Dipole/Quad.)    ...  NO
Static polarizability (Quad./Quad.)     ...  NO
Static polarizability (Velocity)        ...  NO

Atomic electric properties:
Dipole moment                           ...  NO
Quadrupole moment                       ...  NO
Static polarizability                   ...  NO

Choice of electric origin               ... Center of mass
Position of electric origin             ...     0.000014     0.000011     0.000009

General magnetic properties:
Magnetizability                         ...  NO

EPR properties:
g-Tensor (aka g-matrix)                 ...  NO
Zero-Field splitting spin-orbit         ...  NO
Zero-field splitting spin-spin          ...  NO
Hyperfine couplings                     ...  NO (   0 nuclei)
Quadrupole couplings                    ...  NO (   0 nuclei)
Contact density                         ...  NO (   0 nuclei)

NMR properties:
Chemical shifts                         ...  NO (   0 nuclei)
Spin-rotation constants                 ...  NO (   0 nuclei)
Spin-spin couplings                     ...  NO (   0 nuclei,    0 pairs)

Choice of magnetic origin               ... GIAO
Position of magnetic origin             ...     0.000000     0.000000     0.000000

Properties with geometric perturbations:
SCF Hessian                             ...  NO
IR spectrum                             ...  NO
VCD spectrum                            ...  NO
X-ray spectroscopy properties:
SCF XES/XAS/RIXS spectra                ...  NO


-------------
DIPOLE MOMENT
-------------

Method             : SCF
Type of density    : Electron Density
Multiplicity       :   1
Irrep              :   0
Energy             :  -464.8730597061800154 Eh
Relativity type    : 
Basis              : AO
                                X                 Y                 Z
Electronic contribution:     -2.606432111      -2.638484883      -3.274000833
Nuclear contribution   :      2.800892414       3.117213117       3.317274299
                        -----------------------------------------
Total Dipole Moment    :      0.194460303       0.478728234       0.043273465
                        -----------------------------------------
Magnitude (a.u.)       :      0.518524950
Magnitude (Debye)      :      1.317985682



--------------------
Rotational spectrum 
--------------------
 
Rotational constants in cm-1:             0.061971             0.026214             0.022669 
Rotational constants in MHz :          1857.830306           785.878653           679.586316 

Dipole components along the rotational axes: 
x,y,z [a.u.] :     0.212907     0.426356    -0.204351 
x,y,z [Debye]:     0.541167     1.083711    -0.519418 

 

Dipole moment calculation done in   0.0 sec 

Maximum memory used throughout the entire PROP-calculation: 11.9 MB

--------------------------------
SUGGESTED CITATIONS FOR THIS RUN
--------------------------------

Below you find a list of papers that are relevant to this ORCA run
We neither can nor want to force you to cite these papers, but we appreciate if you do
You receive ORCA, which is the product of decades of hard work by many enthusiastic individuals, for free
The only thing we kindly ask in return is that you cite our papers,
We deeply appreciate it, if you show your appreciation for ORCA by not just citing the generic ORCA reference.

Please note that relegating all ORCA citations to the supporting information does *not* help us.
SI sections are not indexed - citations you put there will not count into any citation statistics
But we need these citations in order to attract the funding resources that allow us to do what we are doing

Therefore, if you are a happy ORCA user, please consider citing a few of the papers listed below in the main body of your paper

In addition to the list printed below, the program has created the file sp.bibtex that contains the list in bibtex format
You can import this file easily into all common literature databanks and citation aid programs


List of essential papers. We consider these as the minimum necessary citations

  1. Neese,F.
     Software update: the ORCA program system, version 5.0
     WIRES Comput. Molec. Sci., 2022 12(1)e1606
     doi.org/10.1002/wcms.1606

List of papers to cite with high priority. The work reported in these papers was absolutely
necessary for this run to complete.
Our perspective: the developers of density functionals and basis sets usually get cited in chemistry papers
Good! But without the algorithms to do something with them, the functionals or basis sets would not do anything.
Hence, in our opinion, the algorithm design and method developments papers are equally worthy of getting cited

  1. Neese,F.
     An improvement of the resolution of the identity approximation for the formation of the Coulomb matrix
     J. Comp. Chem., 2003 24(14)1740-1747
     doi.org/10.1002/jcc.10318
  2. Neese,F.
     The SHARK Integral Generation and Digestion System
     J. Comp. Chem., 2022  1-16
     doi.org/10.1002/jcc.26942
  3. Caldeweyher,E.; Bannwarth,C.; Grimme,S.
     Extension of the D3 dispersion coefficient model
     J. Chem. Phys., 2017 147 034112-XXXX
     doi.org/10.1063/1.4993215
  4. Caldeweyher,E.; Ehlert,S.; Hansen,A.; Neugebauer,H.; Spicher,S.; Bannwarth,C.; Grimme,S.
     A generally applicable atomic-charge dependent London dispersion correction
     J. Chem. Phys., 2019 150 154122-XXXX
     doi.org/10.1063/1.5090222
  5. Caldeweyher,E.; Mewes,J.; Ehlert,S.; Grimme,S.
     Extension and evaluation of the D4 London-dispersion model for periodic systems
     Phys. Chem. Chem. Phys., 2020 22(16)8499-8512
     doi.org/10.1039/D0CP00502A

List of suggested additional citations. These are papers that are important in the 'surrounding' of 
of this run, or papers that preceded the highly important papers. If you like your results we are grateful for a citation.

  1. Neese,F.
     The ORCA program system
     WIRES Comput. Molec. Sci., 2012 2(1)73-78
     doi.org/10.1002/wcms.81
  2. Neese,F.
     Software update: the ORCA program system, version 4.0
     WIRES Comput. Molec. Sci., 2018 8(1)1-6
     doi.org/10.1002/wcms.1327
  3. Neese,F.; Wennmohs,F.; Becker,U.; Riplinger,C.
     The ORCA quantum chemistry program package
     J. Chem. Phys., 2020 152 Art. No. L224108
     doi.org/10.1063/5.0004608

List of optional additional citations

  1. Neese,F.
     Approximate second-order SCF convergence for spin unrestricted wavefunctions
     Chem. Phys. Lett., 2000 325(1-3)93-98
     doi.org/10.1016/s0009-2614(00)00662-x

Timings for individual modules:

Sum of individual times          ...       11.763 sec (=   0.196 min)
Startup calculation              ...        0.917 sec (=   0.015 min)   7.8 %
SCF iterations                   ...       10.755 sec (=   0.179 min)  91.4 %
Property calculations            ...        0.091 sec (=   0.002 min)   0.8 %
                             ****ORCA TERMINATED NORMALLY****
TOTAL RUN TIME: 0 days 0 hours 0 minutes 12 seconds 487 msec
