
                                 *****************
                                 * O   R   C   A *
                                 *****************

                                            #,                                       
                                            ###                                      
                                            ####                                     
                                            #####                                    
                                            ######                                   
                                           ########,                                 
                                     ,,################,,,,,                         
                               ,,#################################,,                 
                          ,,##########################################,,             
                       ,#########################################, ''#####,          
                    ,#############################################,,   '####,        
                  ,##################################################,,,,####,       
                ,###########''''           ''''###############################       
              ,#####''   ,,,,##########,,,,          '''####'''          '####       
            ,##' ,,,,###########################,,,                        '##       
           ' ,,###''''                  '''############,,,                           
         ,,##''                                '''############,,,,        ,,,,,,###''
      ,#''                                            '''#######################'''  
     '                                                          ''''####''''         
             ,#######,   #######,   ,#######,      ##                                
            ,#'     '#,  ##    ##  ,#'     '#,    #''#        ,####,   ,####,        
            ##       ##  ##   ,#'  ##            #'  '#       #'       #'  '#        
            ##       ##  #######   ##           ,######,      #####,   #    #        
            '#,     ,#'  ##    ##  '#,     ,#' ,#      #,     #,   #   #,  ,#        
             '#######'   ##     ##  '#######'  #'      '#     '####' # '####'        



                #########################################################
                #                        -***-                          #
                #          Department of theory and spectroscopy        #
                #                                                       #
                #                      Frank Neese                      #
                #                                                       #
                #     Directorship, Architecture, Infrastructure        #
                #                    SHARK, DRIVERS                     #
                #        Core code/Algorithms in most modules           #
                #                                                       #
                #        Max Planck Institute fuer Kohlenforschung      #
                #                Kaiser Wilhelm Platz 1                 #
                #                 D-45470 Muelheim/Ruhr                 #
                #                      Germany                          #
                #                                                       #
                #                  All rights reserved                  #
                #                        -***-                          #
                #########################################################


                         Program Version 6.0.0  -   RELEASE  -


 With contributions from (in alphabetic order):
   Daniel Aravena         : Magnetic Suceptibility
   Michael Atanasov       : Ab Initio Ligand Field Theory (pilot matlab implementation)
   Alexander A. Auer      : GIAO ZORA, VPT2 properties, NMR spectrum
   Ute Becker             : All parallelization in ORCA, NUMFREQ, NUMCALC
   Giovanni Bistoni       : ED, misc. LED, open-shell LED, HFLD
   Martin Brehm           : Molecular dynamics
   Dmytro Bykov           : pre 5.0 version of the SCF Hessian
   Marcos Casanova-Páez   : Triplet and SCS-CIS(D). UHF-(DLPNO)-IP/EA/STEOM-CCSD. UHF-CVS-IP/STEOM-CCSD
   Vijay G. Chilkuri      : MRCI spin determinant printing, contributions to CSF-ICE
   Pauline Colinet        : FMM embedding
   Dipayan Datta          : RHF DLPNO-CCSD density
   Achintya Kumar Dutta   : EOM-CC, STEOM-CC
   Nicolas Foglia         : Exact transition moments, OPA infrastructure, MCD improvements
   Dmitry Ganyushin       : Spin-Orbit,Spin-Spin,Magnetic field MRCI
   Miquel Garcia          : C-PCM and meta-GGA Hessian, CCSD/C-PCM, Gaussian charge scheme
   Tiago L. C. Gouveia    : GS-ROHF, GS-ROCIS
   Yang Guo               : DLPNO-NEVPT2, F12-NEVPT2, CIM, IAO-localization
   Andreas Hansen         : Spin unrestricted coupled pair/coupled cluster methods
   Ingolf Harden          : AUTO-CI MPn and infrastructure 
   Benjamin Helmich-Paris : MC-RPA, TRAH-(SCF,CASSCF), AVAS, COSX integrals, SCF dyn. polar.
   Lee Huntington         : MR-EOM, pCC
   Robert Izsak           : Overlap fitted RIJCOSX, COSX-SCS-MP3, EOM
   Riya Kayal             : Wick's Theorem for AUTO-CI, AUTO-CI UHF-CCSDT
   Emily Kempfer          : AUTO-CI, RHF CISDT and CCSDT
   Christian Kollmar      : KDIIS, OOCD, Brueckner-CCSD(T), CCSD density, CASPT2, CASPT2-K, improved NEVPT2
   Axel Koslowski         : Symmetry handling
   Simone Kossmann        : Meta GGA functionals, TD-DFT gradient, OOMP2, (MP2 Hessian; deprecated post 5.0)
   Lucas Lang             : DCDCAS
   Marvin Lechner         : AUTO-CI (C++ implementation), FIC-MRCC
   Spencer Leger          : CASSCF response
   Dagmar Lenk            : GEPOL surface, SMD, ORCA-2-JSON
   Dimitrios Liakos       : Extrapolation schemes; Compound Job, initial MDCI parallelization
   Dimitrios Manganas     : Further ROCIS development; embedding schemes. LFT, Crystal Embedding
   Dimitrios Pantazis     : SARC Basis sets
   Anastasios Papadopoulos: AUTO-CI, single reference methods and gradients
   Taras Petrenko         : pre 6.0 DFT Hessian and TD-DFT gradient, (ASA, deprecated), ECA, 1-Electron XAS/XES, NRVS
   Peter Pinski           : DLPNO-MP2, DLPNO-MP2 Gradient
   Christoph Reimann      : Effective Core Potentials
   Marius Retegan         : Local ZFS, SOC
   Christoph Riplinger    : Optimizer, TS searches, QM/MM, DLPNO-CCSD(T), (RO)-DLPNO pert. Triples
   Michael Roemelt        : Original ROCIS implementation
   Masaaki Saitow         : Open-shell DLPNO-CCSD energy and density
   Barbara Sandhoefer     : DKH picture change effects
   Kantharuban Sivalingam : CASSCF convergence/infrastructure, NEVPT2 and variants, FIC-MRCI
   Bernardo de Souza      : ESD, SOC TD-DFT
   Georgi Stoychev        : AutoAux, RI-MP2 NMR, DLPNO-MP2 response, X2C
   Van Anh Tran           : RI-MP2 g-tensors
   Willem Van den Heuvel  : Paramagnetic NMR
   Zikuan Wang            : NOTCH, Electric field optimization 
   Frank Wennmohs         : Technical directorship and infrastructure
   Hang Xu                : AUTO-CI-Response properties 


 We gratefully acknowledge several colleagues who have allowed us to
 interface, adapt or use parts of their codes:
   Stefan Grimme, W. Hujo, H. Kruse, P. Pracht,  : VdW corrections, initial TS optimization,
                  C. Bannwarth, S. Ehlert,         DFT functionals, gCP, sTDA/sTD-DF
                  L. Wittmann, M. Mueller
   Ed Valeev, F. Pavosevic, A. Kumar             : LibInt (2-el integral package), F12 methods
   Garnet Chan, S. Sharma, J. Yang, R. Olivares  : DMRG
   Ulf Ekstrom                                   : XCFun DFT Library
   Mihaly Kallay                                 : mrcc  (arbitrary order and MRCC methods)
   Frank Weinhold                                : gennbo (NPA and NBO analysis)
   Simon Mueller                                 : openCOSMO-RS
   Christopher J. Cramer and Donald G. Truhlar   : smd solvation model
   Lars Goerigk                                  : TD-DFT with DH, B97 family of functionals
   V. Asgeirsson, H. Jonsson                     : NEB implementation
   FAccTs GmbH                                   : IRC, NEB, NEB-TS, DLPNO-Multilevel, CI-OPT
                                                   MM, QMMM, 2- and 3-layer-ONIOM, Crystal-QMMM,
                                                   LR-CPCM, SF, NACMEs, symmetry and pop. for TD-DFT,
                                                   nearIR, NL-DFT gradient (VV10), updates on ESD,
                                                   ML-optimized integration grids, MBIS, APM,
                                                   GOAT, DOCKER, SOLVATOR, interface openCOSMO-RS
   S Lehtola, MJT Oliveira, MAL Marques          : LibXC Library
   Liviu Ungur et al                             : ANISO software


 Your calculation uses the libint2 library for the computation of 2-el integrals
 For citations please refer to: http://libint.valeyev.net

 Your ORCA version has been built with support for libXC version: 6.2.2
 For citations please refer to: https://libxc.gitlab.io

 This ORCA versions uses:
   CBLAS   interface :  Fast vector & matrix operations
   LAPACKE interface :  Fast linear algebra routines
   SCALAPACK package :  Parallel linear algebra routines
   Shared memory     :  Shared parallel matrices
   BLAS/LAPACK       :  OpenBLAS 0.3.27  USE64BITINT DYNAMIC_ARCH NO_AFFINITY SkylakeX SINGLE_THREADED
        Core in use  :  SkylakeX
   Copyright (c) 2011-2014, The OpenBLAS Project


Your calculation utilizes the geometrical counterpoise correction gCP
Please cite in your paper:
H.Kruse, S. Grimme J.Chem.Phys., 136, (2012), 154101 
   

Your calculation utilizes the DFT-NL dispersion correction.
Cite in your paper:
Vydrov, O. A.; Van Voorhis, T. J. Chem. Phys. 2010, 133, 244103
Hujo, W.; Grimme, S. J. Chem. Theory Comput. 2011, 7, 3866 
   

================================================================================

----- Orbital basis set information -----
Your calculation utilizes the basis: def2-TZVP
   F. Weigend and R. Ahlrichs, Phys. Chem. Chem. Phys. 7, 3297 (2005).

----- AuxJ basis set information -----
Your calculation utilizes the auxiliary basis: def2/J
   F. Weigend, Phys. Chem. Chem. Phys. 8, 1057 (2006).

================================================================================
                                        WARNINGS
                       Please study these warnings very carefully!
================================================================================


================================================================================
                                       INPUT FILE
================================================================================
NAME = sp_gas.inp
|  1> ! wb97x-v def2-tzvp def2/J RIJCOSX DEFGRID2 scfconv7 GCP(DFT/TZ) printgap
|  2> %output
|  3>     printlevel normal
|  4> end
|  5> * xyz 0 1
|  6> C -2.828770444223101 -0.24445291094085 -0.3582181468899879
|  7> O -1.4016891996089735 -0.5517041525654012 -0.4550530158174661
|  8> C -0.6007122147086033 0.30561103043652565 0.14299828703133444
|  9> O -0.9023531162110263 1.3042948681085875 0.7541631890176217
| 10> C 0.8863019311734794 -0.09947835466994245 0.000847728776010802
| 11> F 1.5765692900948767 0.9217584980547079 -0.5408916739216402
| 12> F 1.3981055506465825 -0.3425459050510363 1.2239254141237754
| 13> F 1.0815007982528255 -1.18660813889974 -0.7577558752036611
| 14> H -3.32234513253355 -1.020752774104232 -0.938495200354041
| 15> H -3.0158643790436206 0.7433500847083031 -0.7824295219888712
| 16> H -3.133907684345449 -0.28172691139539996 0.6889033978488764
| 17> *
| 18> 
| 19>                          ****END OF INPUT****
================================================================================

                       ****************************
                       * Single Point Calculation *
                       ****************************

---------------------------------
CARTESIAN COORDINATES (ANGSTROEM)
---------------------------------
  C     -2.828770   -0.244453   -0.358218
  O     -1.401689   -0.551704   -0.455053
  C     -0.600712    0.305611    0.142998
  O     -0.902353    1.304295    0.754163
  C      0.886302   -0.099478    0.000848
  F      1.576569    0.921758   -0.540892
  F      1.398106   -0.342546    1.223925
  F      1.081501   -1.186608   -0.757756
  H     -3.322345   -1.020753   -0.938495
  H     -3.015864    0.743350   -0.782430
  H     -3.133908   -0.281727    0.688903

----------------------------
CARTESIAN COORDINATES (A.U.)
----------------------------
  NO LB      ZA    FRAG     MASS         X           Y           Z
   0 C     6.0000    0    12.011   -5.345601   -0.461949   -0.676934
   1 O     8.0000    0    15.999   -2.648809   -1.042570   -0.859926
   2 C     6.0000    0    12.011   -1.135182    0.577521    0.270228
   3 O     8.0000    0    15.999   -1.705200    2.464760    1.425162
   4 C     6.0000    0    12.011    1.674868   -0.187987    0.001602
   5 F     9.0000    0    18.998    2.979284    1.741871   -1.022137
   6 F     9.0000    0    18.998    2.642037   -0.647318    2.312884
   7 F     9.0000    0    18.998    2.043740   -2.242364   -1.431951
   8 H     1.0000    0     1.008   -6.278322   -1.928943   -1.773499
   9 H     1.0000    0     1.008   -5.699158    1.404728   -1.478578
  10 H     1.0000    0     1.008   -5.922227   -0.532387    1.301839

--------------------------------
INTERNAL COORDINATES (ANGSTROEM)
--------------------------------
 C      0   0   0     0.000000000000     0.00000000     0.00000000
 O      1   0   0     1.462990497594     0.00000000     0.00000000
 C      2   1   0     1.316897419765   115.24687427     0.00000000
 O      3   2   1     1.209081956902   127.99125288   359.95596470
 C      3   2   1     1.547745218436   111.85546166   179.57749281
 F      5   3   2     1.346430583651   109.32867707   124.78560151
 F      5   3   2     1.347940578568   109.18714609   242.60941372
 F      5   3   2     1.339937757301   113.84767802     3.61467867
 H      1   2   3     1.087648338970   104.91886937   177.48785645
 H      1   2   3     1.091198510549   109.36793107    58.17697036
 H      1   2   3     1.091311878372   109.21290067   296.70314891

---------------------------
INTERNAL COORDINATES (A.U.)
---------------------------
 C      0   0   0     0.000000000000     0.00000000     0.00000000
 O      1   0   0     2.764651376981     0.00000000     0.00000000
 C      2   1   0     2.488575469824   115.24687427     0.00000000
 O      3   2   1     2.284833772011   127.99125288   359.95596470
 C      3   2   1     2.924814587930   111.85546166   179.57749281
 F      5   3   2     2.544385061436   109.32867707   124.78560151
 F      5   3   2     2.547238538292   109.18714609   242.60941372
 F      5   3   2     2.532115397799   113.84767802     3.61467867
 H      1   2   3     2.055357490668   104.91886937   177.48785645
 H      1   2   3     2.062066342680   109.36793107    58.17697036
 H      1   2   3     2.062280576818   109.21290067   296.70314891

---------------------
BASIS SET INFORMATION
---------------------
There are 4 groups of distinct atoms

 Group   1 Type C   : 11s6p2d1f contracted to 5s3p2d1f pattern {62111/411/11/1}
 Group   2 Type O   : 11s6p2d1f contracted to 5s3p2d1f pattern {62111/411/11/1}
 Group   3 Type F   : 11s6p2d1f contracted to 5s3p2d1f pattern {62111/411/11/1}
 Group   4 Type H   : 5s1p contracted to 3s1p pattern {311/1}

Atom   0C    basis set group =>   1
Atom   1O    basis set group =>   2
Atom   2C    basis set group =>   1
Atom   3O    basis set group =>   2
Atom   4C    basis set group =>   1
Atom   5F    basis set group =>   3
Atom   6F    basis set group =>   3
Atom   7F    basis set group =>   3
Atom   8H    basis set group =>   4
Atom   9H    basis set group =>   4
Atom  10H    basis set group =>   4
---------------------------------
AUXILIARY/J BASIS SET INFORMATION
---------------------------------
There are 4 groups of distinct atoms

 Group   1 Type C   : 12s5p4d2f1g contracted to 6s4p3d1f1g pattern {711111/2111/211/2/1}
 Group   2 Type O   : 12s5p4d2f1g contracted to 6s4p3d1f1g pattern {711111/2111/211/2/1}
 Group   3 Type F   : 12s5p4d2f1g contracted to 6s4p3d1f1g pattern {711111/2111/211/2/1}
 Group   4 Type H   : 5s2p1d contracted to 3s1p1d pattern {311/2/1}

Atom   0C    basis set group =>   1
Atom   1O    basis set group =>   2
Atom   2C    basis set group =>   1
Atom   3O    basis set group =>   2
Atom   4C    basis set group =>   1
Atom   5F    basis set group =>   3
Atom   6F    basis set group =>   3
Atom   7F    basis set group =>   3
Atom   8H    basis set group =>   4
Atom   9H    basis set group =>   4
Atom  10H    basis set group =>   4

Checking for AutoStart:
The File: sp_gas.gbw exists
Trying to determine its content:
     ... Fine, the file contains calculation information
     ... Fine, the calculation information was read
     ... Fine, the file contains a basis set
     ... Fine, the basis set was read
     ... Fine, the file contains a geometry
     ... Fine, the geometry was read
     ... Fine, the file contains a set of orbitals
     ... Fine, the orbitals can be read
     => possible old guess file was deleted
     => GBW file was renamed to GES file
     => GES file is set as startup file
     => Guess is set to MORead
     ... now leaving AutoStart

------------------------------------------------------------------------------
                             ORCA STARTUP CALCULATIONS
                           -- RI-GTO INTEGRALS CHOSEN --
------------------------------------------------------------------------------
------------------------------------------------------------------------------
                   ___                                                        
                  /   \      - P O W E R E D   B Y -                         
                 /     \                                                     
                 |  |  |   _    _      __       _____    __    __             
                 |  |  |  | |  | |    /  \     |  _  \  |  |  /  |          
                  \  \/   | |  | |   /    \    | | | |  |  | /  /          
                 / \  \   | |__| |  /  /\  \   | |_| |  |  |/  /          
                |  |  |   |  __  | /  /__\  \  |    /   |      \           
                |  |  |   | |  | | |   __   |  |    \   |  |\   \          
                \     /   | |  | | |  |  |  |  | |\  \  |  | \   \       
                 \___/    |_|  |_| |__|  |__|  |_| \__\ |__|  \__/        
                                                                              
                      - O R C A' S   B I G   F R I E N D -                    
                                      &                                       
                       - I N T E G R A L  F E E D E R -                       
                                                                              
 v1 FN, 2020, v2 2021, v3 2022-2024                                           
------------------------------------------------------------------------------


----------------------
SHARK INTEGRAL PACKAGE
----------------------

Number of atoms                             ...     11
Number of basis functions                   ...    266
Number of shells                            ...    100
Maximum angular momentum                    ...      3
Integral batch strategy                     ... SHARK/LIBINT Hybrid
RI-J (if used) integral strategy            ... SPLIT-RIJ (Revised 2003 algorithm where possible)
Printlevel                                  ...      1
Contraction scheme used                     ... SEGMENTED contraction
Prescreening option                         ... SCHWARTZ
   Thresh                                   ... 3.000e-11
   Tcut                                     ... 1.000e-12
   Tpresel                                  ... 1.000e-12 
Coulomb Range Separation                    ... NOT USED
Exchange Range Separation                   ... Long Range
   Mu parameter                             ... 3.000e-01
   Scaling (regular/separated)              ... 1.670e-01 8.330e-01
Multipole approximations                    ... NOT USED
Finite Nucleus Model                        ... NOT USED
CABS basis                                  ... NOT available
Auxiliary Coulomb fitting basis             ... AVAILABLE
   # of basis functions in Aux-J            ...    425
   # of shells in Aux-J                     ...    135
   Maximum angular momentum in Aux-J        ...      4
Auxiliary J/K fitting basis                 ... NOT available
Auxiliary Correlation fitting basis         ... NOT available
Auxiliary 'external' fitting basis          ... NOT available

Checking pre-screening integrals            ... done (  0.0 sec) Dimension = 100
Check shell pair data                       ... done (  0.0 sec)
Shell pair information
Shell pair cut-off parameter TPreSel        ...   1.0e-12
Total number of shell pairs                 ...      5050
Shell pairs after pre-screening             ...      4476
Total number of primitive shell pairs       ...     16116
Primitive shell pairs kept                  ...     10523
          la=0 lb=0:   1022 shell pairs
          la=1 lb=0:   1199 shell pairs
          la=1 lb=1:    359 shell pairs
          la=2 lb=0:    678 shell pairs
          la=2 lb=1:    407 shell pairs
          la=2 lb=2:    126 shell pairs
          la=3 lb=0:    335 shell pairs
          la=3 lb=1:    200 shell pairs
          la=3 lb=2:    116 shell pairs
          la=3 lb=3:     34 shell pairs

Calculating one electron integrals          ... done (  0.0 sec)
Calculating RI/J V-Matrix + Cholesky decomp.... done (  0.1 sec)
Calculating Nuclear repulsion               ... done (  0.0 sec) ENN=    417.317195986482 Eh

Diagonalization of the overlap matrix:
Smallest eigenvalue                        ... 5.330e-04
Time for diagonalization                   ...    0.006 sec
Threshold for overlap eigenvalues          ... 1.000e-07
Number of eigenvalues below threshold      ... 0
Time for construction of square roots      ...    0.015 sec
Total time needed                          ...    0.029 sec

-------------------
DFT GRID GENERATION
-------------------

General Integration Accuracy     IntAcc      ... 4.388
Radial Grid Type                 RadialGrid  ... OptM3 with GC (2021)
Angular Grid (max. ang.)         AngularGrid ... 4 (Lebedev-302)
Angular grid pruning method      GridPruning ... 4 (adaptive)
Weight generation scheme         WeightScheme... mBecke (2022)
Basis function cutoff            BFCut       ... 1.0000e-11
Integration weight cutoff        WCut        ... 1.0000e-14
Partially contracted basis set               ... off
Rotationally invariant grid construction     ... off
Angular grids for H and He will be reduced by one unit

Total number of grid points                  ...    58435
Total number of batches                      ...      920
Average number of points per batch           ...       63
Average number of grid points per atom       ...     5312

--------------------
COSX GRID GENERATION
--------------------

GRIDX 1
-------
General Integration Accuracy     IntAcc      ... 3.816
Radial Grid Type                 RadialGrid  ... OptM3 with GC (2021)
Angular Grid (max. ang.)         AngularGrid ... 1 (Lebedev-50)
Angular grid pruning method      GridPruning ... 4 (adaptive)
Weight generation scheme         WeightScheme... mBecke (2022)
Basis function cutoff            BFCut       ... 1.0000e-11
Integration weight cutoff        WCut        ... 1.0000e-14
Partially contracted basis set               ... on
Rotationally invariant grid construction     ... off
Angular grids for H and He will be reduced by one unit

Total number of grid points                  ...     7425
Total number of batches                      ...       64
Average number of points per batch           ...      116
Average number of grid points per atom       ...      675
UseSFitting                                  ... on

GRIDX 2
-------
General Integration Accuracy     IntAcc      ... 4.020
Radial Grid Type                 RadialGrid  ... OptM3 with GC (2021)
Angular Grid (max. ang.)         AngularGrid ... 2 (Lebedev-110)
Angular grid pruning method      GridPruning ... 4 (adaptive)
Weight generation scheme         WeightScheme... mBecke (2022)
Basis function cutoff            BFCut       ... 1.0000e-11
Integration weight cutoff        WCut        ... 1.0000e-14
Partially contracted basis set               ... on
Rotationally invariant grid construction     ... off
Angular grids for H and He will be reduced by one unit

Total number of grid points                  ...    17069
Total number of batches                      ...      138
Average number of points per batch           ...      123
Average number of grid points per atom       ...     1552
UseSFitting                                  ... on

GRIDX 3
-------
General Integration Accuracy     IntAcc      ... 4.338
Radial Grid Type                 RadialGrid  ... OptM3 with GC (2021)
Angular Grid (max. ang.)         AngularGrid ... 3 (Lebedev-194)
Angular grid pruning method      GridPruning ... 4 (adaptive)
Weight generation scheme         WeightScheme... mBecke (2022)
Basis function cutoff            BFCut       ... 1.0000e-11
Integration weight cutoff        WCut        ... 1.0000e-14
Partially contracted basis set               ... on
Rotationally invariant grid construction     ... off
Angular grids for H and He will be reduced by one unit

Total number of grid points                  ...    37825
Total number of batches                      ...      300
Average number of points per batch           ...      126
Average number of grid points per atom       ...     3439
UseSFitting                                  ... on
Initializing property integral containers    ... done (  0.0 sec)

SHARK setup successfully completed in   1.5 seconds

Maximum memory used throughout the entire STARTUP-calculation: 34.9 MB
-------------------------------------------------------------------------------
                                 ORCA GUESS
                   Start orbitals & Density for SCF / CASSCF
-------------------------------------------------------------------------------

------------
SCF SETTINGS
------------
Hamiltonian:
 Density Functional     Method          .... DFT(GTOs)
 Exchange Functional    Exchange        .... WB97X-V
 Correlation Functional Correlation     .... WB97X-V
 Gradients option       PostSCFGGA      .... off
 Hybrid DFT is turned on
   Fraction HF Exchange ScalHFX         ....  0.167000
   Scaling of DF-GGA-X  ScalDFX         ....  0.000000
   Scaling of DF-GGA-C  ScalDFC         ....  1.000000
   Scaling of DF-LDA-C  ScalLDAC        ....  1.000000
   Perturbative correction              ....  0.000000
 Long-range corrected/Screened/Range-Separated Hybrid DFT is turned on
   Amount of maximum screened exact exchange              ....  0.833000
   Range separation parameter mu (erf(mu*r12)/r12)        ....  0.300000
   NL short-range parameter             ....  6.000000
   NL long-range parameter              ....  0.010000
 RI-approximation to the Coulomb term is turned on
   Number of AuxJ basis functions       .... 425
   RIJ-COSX (HFX calculated with COS-X)).... on


General Settings:
 Integral files         IntName         .... sp_gas
 Hartree-Fock type      HFTyp           .... RHF
 Total Charge           Charge          ....    0
 Multiplicity           Mult            ....    1
 Number of Electrons    NEL             ....   64
 Basis Dimension        Dim             ....  266
 Nuclear Repulsion      ENuc            ....    417.3171959865 Eh

Convergence Acceleration:
 AO-DIIS                CNVDIIS         .... on
   Start iteration      DIISMaxIt       ....    12
   Startup error        DIISStart       ....  0.200000
   # of expansion vecs  DIISMaxEq       ....     5
   Bias factor          DIISBfac        ....   1.050
   Max. coefficient     DIISMaxC        ....  10.000
 MO-DIIS                CNVKDIIS        .... off
 Trust-Rad. Augm. Hess. CNVTRAH         .... auto
   Auto Start mean grad. ratio tolernc. ....  1.125000
   Auto Start start iteration           ....     1
   Auto Start num. interpolation iter.  ....    10
   Max. Number of Micro iterations      ....    24
   Max. Number of Macro iterations      .... Maxiter - #DIIS iter
   Number of Davidson start vectors     ....     2
   Converg. threshold    (grad. norm)   ....   1.000e-04
   Grad. Scal. Fac. for Micro threshold ....   0.100
   Minimum threshold for Micro iter.    ....   1.000e-02
   NR start threshold (gradient norm)   ....   1.000e-04
   Initial trust radius                 ....   0.400
   Minimum AH scaling param. (alpha)    ....   1.000
   Maximum AH scaling param. (alpha)    .... 1000.000
   Quad. conv. algorithm                .... NR
   White noise on init. David. guess    .... on
   Maximum white noise                  ....   0.010
   Pseudo random numbers                .... off
   Inactive MOs                         .... canonical
   Orbital update algorithm             .... Taylor
   Preconditioner                       .... Diag
   Full preconditioner red. dimension   ....   250
 SOSCF                  CNVSOSCF        .... on
   Start iteration      SOSCFMaxIt      ....   150
   Startup grad/error   SOSCFStart      ....  0.003300
   Hessian update       SOSCFHessUp     .... L-BFGS
 Level Shifting         CNVShift        .... on
   Level shift para.    LevelShift      ....    0.2500
   Turn off err/grad.   ShiftErr        ....    0.0010
 Zerner damping         CNVZerner       .... off
 Static damping         CNVDamp         .... on
   Fraction old density DampFac         ....    0.7000
   Max. Damping (<1)    DampMax         ....    0.9800
   Min. Damping (>=0)   DampMin         ....    0.0000
   Turn off err/grad.   DampErr         ....    0.1000

SCF Procedure:
 Maximum # iterations   MaxIter         ....   125
 SCF integral mode      SCFMode         .... Direct
   Integral package                     .... SHARK and LIBINT hybrid scheme
 Reset frequency        DirectResetFreq ....    20
 Integral Threshold     Thresh          ....  3.000e-11 Eh
 Primitive CutOff       TCut            ....  1.000e-12 Eh

Convergence Tolerance:
 Convergence Check Mode ConvCheckMode   .... Total+1el-Energy
 Convergence forced     ConvForced      .... 0
 Energy Change          TolE            ....  1.000e-07 Eh
 1-El. energy change                    ....  1.000e-04 Eh
 Orbital Gradient       TolG            ....  1.000e-04
 Orbital Rotation angle TolX            ....  1.000e-04
 DIIS Error             TolErr          ....  1.000e-07

---------------------
INITIAL GUESS: MOREAD
---------------------
Guess MOs are being read from file: sp_gas.ges
Input Geometry matches current geometry (good)
Atom 0: N(Shells)= 11 and 9 - projection required
Input basis set needs projection
NBasis(read)= 192
NBasis(calc)= 266
Basis set overlap was calculated
Using GuessMode=FMatrix for the initial guess
C*T matrix was formed
Effective Fockian was calculated
Effective Fockian was diagonalized
Initial density was built
                      ------------------
                      INITIAL GUESS DONE (   0.0 sec)
                      ------------------
             **** ENERGY FILE WAS UPDATED (sp_gas.en.tmp) ****
Finished Guess after   0.3 sec
Maximum memory used throughout the entire GUESS-calculation: 21.8 MB

-------------------------------------------------------------------------------------------
                                      ORCA LEAN-SCF
                              memory conserving SCF solver
-------------------------------------------------------------------------------------------

----------------------------------------D-I-I-S--------------------------------------------
Iteration    Energy (Eh)           Delta-E    RMSDP     MaxDP     DIISErr   Damp  Time(sec)
-------------------------------------------------------------------------------------------
               ***  Starting incremental Fock matrix formation  ***
    1    -566.4016543010542364     0.00e+00  5.33e-04  1.32e-02  5.68e-02  0.700   9.3
    2    -566.4083050480994643    -6.65e-03  4.43e-04  1.07e-02  4.08e-02  0.700   4.4
                               ***Turning on AO-DIIS***
    3    -566.4131953905815635    -4.89e-03  3.61e-04  9.11e-03  2.89e-02  0.700   4.3
    4    -566.4167352867169711    -3.54e-03  8.92e-04  2.26e-02  2.04e-02  0.000   4.3
                              *** Initializing SOSCF ***
---------------------------------------S-O-S-C-F--------------------------------------
Iteration    Energy (Eh)           Delta-E    RMSDP     MaxDP     MaxGrad    Time(sec)
--------------------------------------------------------------------------------------
    5    -566.4256726014007199    -8.94e-03  4.90e-05  1.37e-03  1.70e-03     4.5
               *** Restarting incremental Fock matrix formation ***
    6    -566.4257145965146947    -4.20e-05  3.13e-05  8.38e-04  8.82e-04     9.4
    7    -566.4257264407841603    -1.18e-05  2.92e-05  7.96e-04  7.44e-04     7.3
    8    -566.4257294393190705    -3.00e-06  1.04e-05  3.16e-04  4.02e-04     7.2
    9    -566.4257305352812182    -1.10e-06  2.92e-06  8.85e-05  5.89e-05     6.9
   10    -566.4257305478815852    -1.26e-08  1.40e-06  4.71e-05  3.54e-05     6.2
                 **** Energy Check signals convergence ****

               *****************************************************
               *                     SUCCESS                       *
               *           SCF CONVERGED AFTER  10 CYCLES          *
               *****************************************************


------------------
NL GRID GENERATION
------------------

General Integration Accuracy     IntAcc      ... 4.004
Radial Grid Type                 RadialGrid  ... OptM3 with GC (2021)
Angular Grid (max. ang.)         AngularGrid ... 2 (Lebedev-110)
Angular grid pruning method      GridPruning ... 4 (adaptive)
Weight generation scheme         WeightScheme... mBecke (2022)
Basis function cutoff            BFCut       ... 1.0000e-10
Integration weight cutoff        WCut        ... 1.0000e-14
Partially contracted basis set               ... off
Rotationally invariant grid construction     ... off
Angular grids for H and He will be reduced by one unit

Total number of grid points                  ...    19680
Total number of batches                      ...      313
Average number of points per batch           ...       62
Average number of grid points per atom       ...     1789
Final grid set up in    0.2 sec

-------------------------------------------------------------------------------
                    post-SCF DFT-NL dispersion correction                      
-------------------------------------------------------------------------------

SCF Energy:     -566.425730548 
NL    Energy:      0.256036010 
SC+NL Energy:   -566.169694538 
NL done in  :              1.4 sec
-------------------------------------------------------------------------------
Recomputing exchange energy using gridx3       ... done (   17.474 sec)
Old exchange energy                            :    -19.086087968 Eh
New exchange energy                            :    -19.086104923 Eh
Exchange energy change after final integration :     -0.000016955 Eh
Total energy after final integration           :   -566.169711493 Eh
             **** ENERGY FILE WAS UPDATED (sp_gas.en.tmp) ****

----------------
TOTAL SCF ENERGY
----------------

Total Energy       :       -566.16971149327765 Eh          -15406.26109 eV

Components:
Nuclear Repulsion  :        417.31719598648226 Eh           11355.77822 eV
Electronic Energy  :       -983.74292653436385 Eh          -26769.00594 eV
One Electron Energy:      -1609.94292619952557 Eh          -43808.77422 eV
Two Electron Energy:        626.19999966516173 Eh           17039.76828 eV

Virial components:
Potential Energy   :      -1130.52176491542241 Eh          -30763.06119 eV
Kinetic Energy     :        564.35205342214476 Eh           15356.80010 eV
Virial Ratio       :          2.00322078755647

DFT components:
N(Alpha)           :       31.999995248023 electrons
N(Beta)            :       31.999995248023 electrons
N(Total)           :       63.999990496047 electrons
E(X)               :      -44.144032551656 Eh       
E(C)               :       -2.846371219547 Eh       
NL Energy, E(C,NL) :        0.256036009759 Eh       
E(XC)              :      -46.734367761444 Eh       

---------------
SCF CONVERGENCE
---------------

  Last Energy change         ...    1.2600e-08  Tolerance :   1.0000e-07
  Last MAX-Density change    ...    4.7106e-05  Tolerance :   1.0000e-05
  Last RMS-Density change    ...    1.3986e-06  Tolerance :   1.0000e-06
  Last DIIS Error            ...    1.7019e-03  Tolerance :   1.0000e-07
  Last Orbital Gradient      ...    3.5377e-05  Tolerance :   1.0000e-04
  Last Orbital Rotation      ...    4.9596e-05  Tolerance :   1.0000e-04


----------------
ORBITAL ENERGIES
----------------

  NO   OCC          E(Eh)            E(eV) 
   0   2.0000     -27.613996      -751.4150 
   1   2.0000     -27.610955      -751.3323 
   2   2.0000     -27.610624      -751.3233 
   3   2.0000     -21.761444      -592.1590 
   4   2.0000     -21.696243      -590.3848 
   5   2.0000     -12.320483      -335.2574 
   6   2.0000     -12.219009      -332.4961 
   7   2.0000     -12.132277      -330.1360 
   8   2.0000      -2.076008       -56.4910 
   9   2.0000      -2.027844       -55.1804 
  10   2.0000      -2.024646       -55.0934 
  11   2.0000      -1.806053       -49.1452 
  12   2.0000      -1.739528       -47.3350 
  13   2.0000      -1.405362       -38.2418 
  14   2.0000      -1.322096       -35.9761 
  15   2.0000      -1.273071       -34.6420 
  16   2.0000      -1.269859       -34.5546 
  17   2.0000      -1.228187       -33.4207 
  18   2.0000      -1.176607       -32.0171 
  19   2.0000      -1.176526       -32.0149 
  20   2.0000      -1.163302       -31.6551 
  21   2.0000      -1.161847       -31.6155 
  22   2.0000      -1.161509       -31.6063 
  23   2.0000      -1.158427       -31.5224 
  24   2.0000      -1.105870       -30.0922 
  25   2.0000      -1.081554       -29.4306 
  26   2.0000      -1.036180       -28.1959 
  27   2.0000      -0.997017       -27.1302 
  28   2.0000      -0.936392       -25.4805 
  29   2.0000      -0.912740       -24.8369 
  30   2.0000      -0.873457       -23.7680 
  31   2.0000      -0.858348       -23.3568 
  32   0.0000      -0.382941       -10.4203 
  33   0.0000      -0.290568        -7.9067 
  34   0.0000      -0.258720        -7.0401 
  35   0.0000      -0.208056        -5.6615 
  36   0.0000      -0.187874        -5.1123 
  37   0.0000      -0.146750        -3.9933 
  38   0.0000      -0.053101        -1.4450 
  39   0.0000      -0.004428        -0.1205 
  40   0.0000       0.023373         0.6360 
  41   0.0000       0.025465         0.6929 
  42   0.0000       0.083978         2.2851 
*Only the first 10 virtual orbitals were printed.

                    ********************************
                    * MULLIKEN POPULATION ANALYSIS *
                    ********************************

-----------------------
MULLIKEN ATOMIC CHARGES
-----------------------
   0 C :   -0.193214
   1 O :   -0.205225
   2 C :    0.253282
   3 O :   -0.305350
   4 C :    0.455033
   5 F :   -0.146122
   6 F :   -0.147942
   7 F :   -0.142768
   8 H :    0.144196
   9 H :    0.144780
  10 H :    0.143331
Sum of atomic charges:    0.0000000

--------------------------------
MULLIKEN REDUCED ORBITAL CHARGES
--------------------------------
  0 C s       :     3.247890  s :     3.247890
      pz      :     1.101038  p :     2.855052
      px      :     0.668098
      py      :     1.085916
      dz2     :     0.011392  d :     0.083514
      dxz     :     0.024230
      dyz     :     0.007463
      dx2y2   :     0.018397
      dxy     :     0.022032
      f0      :     0.001328  f :     0.006758
      f+1     :     0.000749
      f-1     :     0.000148
      f+2     :     0.001300
      f-2     :     0.000165
      f+3     :     0.001426
      f-3     :     0.001642

  1 O s       :     3.741134  s :     3.741134
      pz      :     1.632480  p :     4.422485
      px      :     1.219775
      py      :     1.570230
      dz2     :     0.005478  d :     0.039528
      dxz     :     0.007588
      dyz     :     0.005974
      dx2y2   :     0.008793
      dxy     :     0.011696
      f0      :     0.000221  f :     0.002078
      f+1     :     0.000332
      f-1     :     0.000205
      f+2     :     0.000258
      f-2     :     0.000315
      f+3     :     0.000403
      f-3     :     0.000344

  2 C s       :     3.092946  s :     3.092946
      pz      :     0.762398  p :     2.357830
      px      :     0.835947
      py      :     0.759484
      dz2     :     0.055498  d :     0.271823
      dxz     :     0.033728
      dyz     :     0.041778
      dx2y2   :     0.070200
      dxy     :     0.070619
      f0      :     0.001206  f :     0.024120
      f+1     :     0.002262
      f-1     :     0.004569
      f+2     :     0.003540
      f-2     :     0.003951
      f+3     :     0.004343
      f-3     :     0.004249

  3 O s       :     3.803084  s :     3.803084
      pz      :     1.376339  p :     4.467559
      px      :     1.737779
      py      :     1.353441
      dz2     :     0.007025  d :     0.032794
      dxz     :     0.003000
      dyz     :     0.008887
      dx2y2   :     0.007409
      dxy     :     0.006473
      f0      :     0.000111  f :     0.001914
      f+1     :     0.000068
      f-1     :     0.000482
      f+2     :     0.000329
      f-2     :     0.000287
      f+3     :     0.000304
      f-3     :     0.000333

  4 C s       :     3.017836  s :     3.017836
      pz      :     0.634285  p :     2.147976
      px      :     0.869699
      py      :     0.643992
      dz2     :     0.076472  d :     0.339969
      dxz     :     0.061084
      dyz     :     0.076726
      dx2y2   :     0.064678
      dxy     :     0.061010
      f0      :     0.005337  f :     0.039185
      f+1     :     0.004025
      f-1     :     0.009658
      f+2     :     0.004894
      f-2     :     0.006319
      f+3     :     0.003969
      f-3     :     0.004984

  5 F s       :     3.898529  s :     3.898529
      pz      :     1.820797  p :     5.230677
      px      :     1.770271
      py      :     1.639608
      dz2     :     0.001927  d :     0.016183
      dxz     :     0.002008
      dyz     :     0.003828
      dx2y2   :     0.003351
      dxy     :     0.005070
      f0      :     0.000083  f :     0.000733
      f+1     :     0.000036
      f-1     :     0.000088
      f+2     :     0.000077
      f-2     :     0.000171
      f+3     :     0.000167
      f-3     :     0.000111

  6 F s       :     3.898943  s :     3.898943
      pz      :     1.525826  p :     5.232172
      px      :     1.825829
      py      :     1.880518
      dz2     :     0.006578  d :     0.016100
      dxz     :     0.004950
      dyz     :     0.003104
      dx2y2   :     0.000766
      dxy     :     0.000701
      f0      :     0.000209  f :     0.000728
      f+1     :     0.000234
      f-1     :     0.000136
      f+2     :     0.000070
      f-2     :     0.000067
      f+3     :     0.000006
      f-3     :     0.000006

  7 F s       :     3.895721  s :     3.895721
      pz      :     1.748120  p :     5.229774
      px      :     1.885346
      py      :     1.596308
      dz2     :     0.002146  d :     0.016522
      dxz     :     0.001361
      dyz     :     0.006481
      dx2y2   :     0.003863
      dxy     :     0.002671
      f0      :     0.000084  f :     0.000751
      f+1     :     0.000011
      f-1     :     0.000157
      f+2     :     0.000213
      f-2     :     0.000102
      f+3     :     0.000083
      f-3     :     0.000101

  8 H s       :     0.835254  s :     0.835254
      pz      :     0.006887  p :     0.020550
      px      :     0.004756
      py      :     0.008907

  9 H s       :     0.834848  s :     0.834848
      pz      :     0.005381  p :     0.020372
      px      :     0.002859
      py      :     0.012132

 10 H s       :     0.836318  s :     0.836318
      pz      :     0.012932  p :     0.020351
      px      :     0.003428
      py      :     0.003991


------------------------
MULLIKEN OVERLAP CHARGES
------------------------
B(  0-C ,  1-O ) :   0.4534 B(  0-C ,  2-C ) :  -0.0772 B(  0-C ,  8-H ) :   0.7922 
B(  0-C ,  9-H ) :   0.8347 B(  0-C , 10-H ) :   0.8363 B(  1-O ,  2-C ) :   0.7317 
B(  1-O ,  3-O ) :  -0.1697 B(  1-O ,  4-C ) :  -0.0860 B(  1-O ,  8-H ) :  -0.0586 
B(  1-O ,  9-H ) :  -0.0648 B(  1-O , 10-H ) :  -0.0643 B(  2-C ,  3-O ) :   1.3151 
B(  2-C ,  4-C ) :   0.7687 B(  2-C ,  5-F ) :  -0.1006 B(  2-C ,  6-F ) :  -0.0980 
B(  2-C ,  7-F ) :  -0.1247 B(  3-O ,  4-C ) :  -0.0675 B(  4-C ,  5-F ) :   0.7444 
B(  4-C ,  6-F ) :   0.7366 B(  4-C ,  7-F ) :   0.7799 B(  5-F ,  6-F ) :  -0.1041 
B(  5-F ,  7-F ) :  -0.1029 B(  6-F ,  7-F ) :  -0.1028 B(  9-H , 10-H ) :  -0.0631 



                     *******************************
                     * LOEWDIN POPULATION ANALYSIS *
                     *******************************

----------------------
LOEWDIN ATOMIC CHARGES
----------------------
   0 C :   -0.256874
   1 O :    0.261972
   2 C :   -0.472787
   3 O :    0.134446
   4 C :   -0.628327
   5 F :    0.202888
   6 F :    0.200216
   7 F :    0.208754
   8 H :    0.115829
   9 H :    0.117108
  10 H :    0.116775

-------------------------------
LOEWDIN REDUCED ORBITAL CHARGES
-------------------------------
  0 C s       :     2.869637  s :     2.869637
      pz      :     1.118927  p :     3.002959
      px      :     0.775471
      py      :     1.108561
      dz2     :     0.052830  d :     0.336330
      dxz     :     0.084276
      dyz     :     0.029992
      dx2y2   :     0.081785
      dxy     :     0.087447
      f0      :     0.006484  f :     0.047948
      f+1     :     0.006383
      f-1     :     0.001186
      f+2     :     0.008115
      f-2     :     0.003852
      f+3     :     0.009708
      f-3     :     0.012220

  1 O s       :     3.255037  s :     3.255037
      pz      :     1.544232  p :     4.369635
      px      :     1.281748
      py      :     1.543655
      dz2     :     0.012111  d :     0.106583
      dxz     :     0.023210
      dyz     :     0.011572
      dx2y2   :     0.027748
      dxy     :     0.031942
      f0      :     0.000594  f :     0.006772
      f+1     :     0.000665
      f-1     :     0.000540
      f+2     :     0.001045
      f-2     :     0.001147
      f+3     :     0.001267
      f-3     :     0.001515

  2 C s       :     2.762389  s :     2.762389
      pz      :     0.800818  p :     2.638820
      px      :     0.933948
      py      :     0.904053
      dz2     :     0.150300  d :     0.924082
      dxz     :     0.122439
      dyz     :     0.171540
      dx2y2   :     0.233139
      dxy     :     0.246663
      f0      :     0.010285  f :     0.147496
      f+1     :     0.014727
      f-1     :     0.017734
      f+2     :     0.023317
      f-2     :     0.024150
      f+3     :     0.028555
      f-3     :     0.028728

  3 O s       :     3.401349  s :     3.401349
      pz      :     1.355924  p :     4.390329
      px      :     1.598177
      py      :     1.436228
      dz2     :     0.009280  d :     0.067733
      dxz     :     0.006033
      dyz     :     0.021670
      dx2y2   :     0.016119
      dxy     :     0.014631
      f0      :     0.000530  f :     0.006143
      f+1     :     0.000108
      f-1     :     0.001079
      f+2     :     0.001393
      f-2     :     0.001041
      f+3     :     0.000995
      f-3     :     0.000998

  4 C s       :     2.767358  s :     2.767358
      pz      :     0.768995  p :     2.495913
      px      :     0.948758
      py      :     0.778160
      dz2     :     0.247151  d :     1.115998
      dxz     :     0.182335
      dyz     :     0.264878
      dx2y2   :     0.226862
      dxy     :     0.194772
      f0      :     0.037148  f :     0.249058
      f+1     :     0.030070
      f-1     :     0.050827
      f+2     :     0.033804
      f-2     :     0.042149
      f+3     :     0.026298
      f-3     :     0.028761

  5 F s       :     3.602524  s :     3.602524
      pz      :     1.771325  p :     5.163387
      px      :     1.735224
      py      :     1.656839
      dz2     :     0.003340  d :     0.029667
      dxz     :     0.003493
      dyz     :     0.006876
      dx2y2   :     0.006195
      dxy     :     0.009762
      f0      :     0.000157  f :     0.001534
      f+1     :     0.000073
      f-1     :     0.000195
      f+2     :     0.000173
      f-2     :     0.000336
      f+3     :     0.000329
      f-3     :     0.000271

  6 F s       :     3.603744  s :     3.603744
      pz      :     1.582333  p :     5.164971
      px      :     1.772356
      py      :     1.810282
      dz2     :     0.012126  d :     0.029545
      dxz     :     0.009746
      dyz     :     0.005235
      dx2y2   :     0.001395
      dxy     :     0.001043
      f0      :     0.000444  f :     0.001523
      f+1     :     0.000467
      f-1     :     0.000290
      f+2     :     0.000161
      f-2     :     0.000134
      f+3     :     0.000012
      f-3     :     0.000016

  7 F s       :     3.598274  s :     3.598274
      pz      :     1.724048  p :     5.161102
      px      :     1.811109
      py      :     1.625944
      dz2     :     0.003494  d :     0.030287
      dxz     :     0.002480
      dyz     :     0.012105
      dx2y2   :     0.007061
      dxy     :     0.005147
      f0      :     0.000171  f :     0.001583
      f+1     :     0.000015
      f-1     :     0.000336
      f+2     :     0.000415
      f-2     :     0.000243
      f+3     :     0.000189
      f-3     :     0.000214

  8 H s       :     0.822658  s :     0.822658
      pz      :     0.021092  p :     0.061512
      px      :     0.013583
      py      :     0.026837

  9 H s       :     0.820435  s :     0.820435
      pz      :     0.017029  p :     0.062457
      px      :     0.008977
      py      :     0.036451

 10 H s       :     0.820970  s :     0.820970
      pz      :     0.038825  p :     0.062255
      px      :     0.010473
      py      :     0.012957


---------------------------------
LOEWDIN BOND ORDERS (THRESH 0.050000)
---------------------------------
B(  0-C ,  1-O ) :   1.3110 B(  0-C ,  2-C ) :   0.2048 B(  0-C ,  3-O ) :   0.0581 
B(  0-C ,  8-H ) :   0.9399 B(  0-C ,  9-H ) :   0.9365 B(  0-C , 10-H ) :   0.9376 
B(  1-O ,  2-C ) :   1.7841 B(  1-O ,  3-O ) :   0.1873 B(  1-O ,  4-C ) :   0.1320 
B(  1-O ,  8-H ) :   0.0504 B(  2-C ,  3-O ) :   2.6715 B(  2-C ,  4-C ) :   1.0173 
B(  2-C ,  5-F ) :   0.1071 B(  2-C ,  6-F ) :   0.1079 B(  2-C ,  7-F ) :   0.0907 
B(  3-O ,  4-C ) :   0.1669 B(  4-C ,  5-F ) :   1.7597 B(  4-C ,  6-F ) :   1.7556 
B(  4-C ,  7-F ) :   1.7790 B(  5-F ,  6-F ) :   0.0830 B(  5-F ,  7-F ) :   0.0836 
B(  6-F ,  7-F ) :   0.0835 

------------------------------------------
LOEWDIN REDUCED ORBITAL POPULATIONS PER MO
-------------------------------------------
THRESHOLD FOR PRINTING IS 0.1%%
                      0         1         2         3         4         5   
                 -27.61400 -27.61095 -27.61062 -21.76144 -21.69624 -12.32048
                   2.00000   2.00000   2.00000   2.00000   2.00000   2.00000
                  --------  --------  --------  --------  --------  --------
 1 O  s               0.0       0.0       0.0      99.8       0.0       0.0
 3 O  s               0.0       0.0       0.0       0.0      99.7       0.0
 4 C  s               0.0       0.0       0.0       0.0       0.0      99.4
 5 F  s               0.0       3.1      96.8       0.0       0.0       0.0
 6 F  s               0.0      96.8       3.1       0.0       0.0       0.0
 7 F  s              99.9       0.0       0.0       0.0       0.0       0.0

                      6         7         8         9        10        11   
                 -12.21901 -12.13228  -2.07601  -2.02784  -2.02465  -1.80605
                   2.00000   2.00000   2.00000   2.00000   2.00000   2.00000
                  --------  --------  --------  --------  --------  --------
 0 C  s               0.0      99.7       0.0       0.0       0.0       2.8
 0 C  px              0.0       0.0       0.0       0.0       0.0       6.0
 0 C  py              0.0       0.0       0.0       0.0       0.0       0.1
 0 C  dz2             0.0       0.0       0.0       0.0       0.0       0.6
 0 C  dx2y2           0.0       0.0       0.0       0.0       0.0       1.6
 0 C  dxy             0.0       0.0       0.0       0.0       0.0       0.1
 0 C  f+1             0.0       0.0       0.0       0.0       0.0       0.1
 0 C  f+3             0.0       0.0       0.0       0.0       0.0       0.2
 1 O  s               0.0       0.0       0.0       0.0       0.0      38.4
 1 O  pz              0.0       0.0       0.0       0.0       0.0       0.7
 1 O  px              0.0       0.1       0.1       0.0       0.0       0.1
 1 O  py              0.0       0.0       0.0       0.0       0.0       1.6
 1 O  dyz             0.0       0.0       0.0       0.0       0.0       0.1
 2 C  s              99.1       0.0       0.7       0.0       0.0      16.7
 2 C  pz              0.0       0.0       0.0       0.1       0.2       0.1
 2 C  px              0.0       0.0       2.1       0.1       0.0       5.3
 2 C  py              0.0       0.0       0.1       0.1       0.1       0.1
 2 C  dz2             0.0       0.0       0.1       0.0       0.0       0.2
 2 C  dxz             0.0       0.0       0.0       0.0       0.1       0.4
 2 C  dyz             0.0       0.0       0.0       0.0       0.0       2.5
 2 C  dx2y2           0.0       0.0       0.1       0.1       0.0       0.4
 2 C  dxy             0.0       0.0       0.0       0.1       0.1       0.8
 2 C  f-2             0.0       0.0       0.0       0.0       0.0       0.5
 2 C  f+3             0.0       0.0       0.0       0.0       0.0       0.2
 2 C  f-3             0.0       0.0       0.0       0.0       0.0       0.2
 3 O  s               0.0       0.0       0.0       0.0       0.0      12.3
 3 O  pz              0.0       0.0       0.0       0.0       0.0       0.7
 3 O  py              0.1       0.0       0.0       0.0       0.0       1.9
 3 O  dyz             0.1       0.0       0.0       0.0       0.0       0.1
 3 O  dx2y2           0.1       0.0       0.0       0.0       0.0       0.1
 4 C  s               0.0       0.0      15.2       0.0       0.0       0.5
 4 C  pz              0.0       0.0       0.1       5.2      10.3       0.0
 4 C  px              0.1       0.0       3.7       0.9       0.1       2.2
 4 C  py              0.0       0.0       0.4       9.6       5.2       0.1
 4 C  dz2             0.0       0.0       0.3       0.3       3.0       0.1
 4 C  dxz             0.0       0.0       0.0       0.3       2.8       0.0
 4 C  dyz             0.0       0.0       0.0       6.0       0.2       0.0
 4 C  dx2y2           0.1       0.0       1.0       0.8       0.4       0.3
 4 C  dxy             0.0       0.0       0.2       1.0       1.9       0.0
 4 C  f0              0.0       0.0       0.6       0.0       0.0       0.0
 4 C  f+1             0.0       0.0       0.2       0.1       0.4       0.0
 4 C  f-1             0.0       0.0       0.2       0.0       0.0       0.0
 4 C  f+2             0.0       0.0       0.5       0.2       0.0       0.0
 4 C  f-2             0.0       0.0       0.1       0.4       0.1       0.0
 4 C  f+3             0.0       0.0       0.2       0.0       0.2       0.0
 5 F  s               0.0       0.0      21.8      14.5      36.5       0.0
 5 F  pz              0.0       0.0       0.2       0.1       0.1       0.0
 5 F  px              0.0       0.0       0.2       0.0       0.1       0.0
 5 F  py              0.0       0.0       0.7       0.1       0.2       0.0
 6 F  s               0.0       0.0      21.7      13.9      37.4       0.0
 6 F  pz              0.0       0.0       0.9       0.1       0.3       0.0
 7 F  s               0.0       0.0      27.2      45.3       0.0       0.0
 7 F  pz              0.0       0.0       0.3       0.1       0.1       0.0
 7 F  py              0.0       0.0       0.7       0.3       0.0       0.0
 8 H  s               0.0       0.0       0.0       0.0       0.0       0.3
 9 H  s               0.0       0.0       0.0       0.0       0.0       0.3
10 H  s               0.0       0.0       0.0       0.0       0.0       0.3

                     12        13        14        15        16        17   
                  -1.73953  -1.40536  -1.32210  -1.27307  -1.26986  -1.22819
                   2.00000   2.00000   2.00000   2.00000   2.00000   2.00000
                  --------  --------  --------  --------  --------  --------
 0 C  s               1.0       0.8      17.5       0.0       0.0       5.4
 0 C  px              1.5       0.3       1.7       0.0       0.0       0.1
 0 C  py              0.2       0.0       0.4       0.0       0.0       0.0
 0 C  dz2             0.2       0.0       0.0       0.0       0.0       0.0
 0 C  dx2y2           0.5       0.0       0.0       0.0       0.0       0.1
 0 C  dxy             0.1       0.0       0.2       0.0       0.0       0.0
 0 C  f-3             0.0       0.0       0.1       0.0       0.0       0.0
 1 O  s              14.7       0.2       0.3       0.0       0.0       0.5
 1 O  pz              0.1       0.1       1.7       0.0       0.0       0.1
 1 O  px              0.1       2.5      32.3       0.0       0.0       2.3
 1 O  py              0.3       0.1       2.1       0.0       0.0       0.1
 1 O  dxz             0.0       0.0       0.2       0.0       0.0       0.0
 1 O  dx2y2           0.1       0.0       0.3       0.0       0.0       0.2
 1 O  dxy             0.0       0.1       0.5       0.0       0.0       0.0
 2 C  s               3.3       1.9       5.7       0.1       0.0       1.0
 2 C  pz              7.7       0.2       1.5       0.0       0.3       0.1
 2 C  px              0.1       3.7       0.8       0.2       0.0       6.3
 2 C  py             18.8       0.9       3.6       0.0       0.1       0.1
 2 C  dz2             0.0       0.2       0.1       0.0       0.0       0.1
 2 C  dxz             1.1       0.0       0.0       0.2       0.4       0.0
 2 C  dyz             0.6       0.0       0.0       0.1       0.0       0.2
 2 C  dx2y2           1.1       0.6       0.2       0.3       0.0       0.8
 2 C  dxy             2.4       0.2       0.0       0.3       0.2       0.1
 2 C  f0              0.3       0.0       0.0       0.0       0.0       0.0
 2 C  f+2             0.2       0.0       0.1       0.0       0.0       0.0
 3 O  s              39.6       0.5       0.9       0.1       0.0       0.7
 3 O  pz              0.9       0.1       0.3       0.0       0.0       0.2
 3 O  px              0.3       0.3       0.1       0.1       0.0       1.4
 3 O  py              2.3       0.2       0.7       0.1       0.0       0.6
 3 O  dyz             0.1       0.0       0.0       0.0       0.0       0.0
 4 C  s               0.1      17.5       0.6       0.0       0.0       0.6
 4 C  pz              0.1       0.0       0.0       6.4      13.0       0.0
 4 C  px              0.1       1.1       4.9       0.3       0.1      16.9
 4 C  py              0.3       0.0       0.0      12.5       6.3       0.6
 4 C  dz2             0.0       0.1       0.1       0.0       0.3       0.3
 4 C  dxz             0.1       0.0       0.0       0.0       0.1       0.0
 4 C  dyz             0.0       0.0       0.0       0.4       0.0       0.0
 4 C  dx2y2           0.0       0.4       0.2       0.0       0.1       0.9
 4 C  dxy             0.3       0.1       0.0       0.1       0.1       0.1
 5 F  s               0.0       3.5       0.4       0.8       2.3       0.1
 5 F  pz              0.0       2.9       0.7       9.7       1.2       0.8
 5 F  px              0.0       5.1       0.0       3.4      11.7       9.4
 5 F  py              0.0       9.9       3.0       1.9      19.9       7.8
 5 F  dyz             0.0       0.1       0.0       0.1       0.0       0.0
 5 F  dxy             0.0       0.2       0.0       0.0       0.2       0.0
 6 F  s               0.0       3.5       0.3       0.7       2.3       0.1
 6 F  pz              0.0      14.4       3.4       5.6      25.8       6.1
 6 F  px              0.0       2.9       0.0       1.4       7.9      11.7
 6 F  py              0.0       0.6       0.1       7.1       0.0       0.1
 6 F  dz2             0.0       0.2       0.1       0.0       0.1       0.1
 6 F  dxz             0.0       0.1       0.0       0.0       0.2       0.0
 6 F  dyz             0.0       0.0       0.0       0.2       0.0       0.0
 7 F  s               0.0       3.8       0.2       3.2       0.0       0.0
 7 F  pz              0.0       6.1       0.7      13.9       4.3       0.5
 7 F  px              0.0       0.6       0.7       1.6       0.0      17.6
 7 F  py              0.0      12.6       1.3      28.5       2.5       0.2
 7 F  dz2             0.0       0.0       0.0       0.0       0.1       0.0
 7 F  dyz             0.0       0.3       0.0       0.2       0.0       0.0
 7 F  dx2y2           0.0       0.1       0.0       0.1       0.0       0.0
 8 H  s               0.1       0.1       3.9       0.0       0.0       1.7
 8 H  pz              0.0       0.0       0.1       0.0       0.0       0.1
 8 H  px              0.0       0.0       0.2       0.0       0.0       0.0
 8 H  py              0.0       0.0       0.2       0.0       0.0       0.1
 9 H  s               0.1       0.1       3.0       0.0       0.0       1.4
 9 H  py              0.0       0.0       0.3       0.0       0.0       0.1
10 H  s               0.1       0.1       3.1       0.0       0.0       1.4
10 H  pz              0.0       0.0       0.3       0.0       0.0       0.2

                     18        19        20        21        22        23   
                  -1.17661  -1.17653  -1.16330  -1.16185  -1.16151  -1.15843
                   2.00000   2.00000   2.00000   2.00000   2.00000   2.00000
                  --------  --------  --------  --------  --------  --------
 0 C  s               0.0       0.0       0.7       8.0       0.1       0.0
 0 C  pz              0.0       0.0       0.0       0.4       0.0       0.0
 0 C  px              0.0       0.0       0.3       2.7       0.0       0.0
 0 C  py              0.0       0.0       0.1       1.3       0.0       0.0
 0 C  dz2             0.0       0.0       0.0       0.1       0.0       0.0
 0 C  dxz             0.0       0.0       0.0       0.2       0.0       0.0
 0 C  dx2y2           0.0       0.0       0.0       0.1       0.0       0.0
 0 C  dxy             0.0       0.0       0.1       0.8       0.0       0.0
 1 O  s               0.0       0.0       0.4       5.0       0.1       0.0
 1 O  pz              0.0       0.0       0.7       5.9       0.1       0.0
 1 O  px              0.0       0.1       0.1       0.2       0.0       0.0
 1 O  py              0.0       0.1       1.7      14.7       0.1       0.0
 1 O  dyz             0.0       0.0       0.0       0.1       0.0       0.0
 2 C  s               0.0       0.1       0.8       4.5       0.1       0.0
 2 C  pz              0.1       0.0       0.0       0.0       0.3       0.1
 2 C  px              0.0       0.0       0.0       0.7       0.0       0.0
 2 C  py              0.0       0.0       0.1       0.2       0.1       0.0
 2 C  dxz             0.1       0.0       0.0       0.0       0.1       0.0
 2 C  dyz             0.0       0.1       0.3       1.0       0.0       0.0
 2 C  dx2y2           0.0       0.0       0.2       0.8       0.0       0.0
 3 O  s               0.0       0.1       1.2       4.7       0.1       0.0
 3 O  pz              0.0       0.1       0.8       3.7       0.0       0.0
 3 O  px              0.0       0.0       0.1       0.1       0.0       0.0
 3 O  py              0.0       0.1       2.1       9.2       0.2       0.0
 3 O  dyz             0.0       0.0       0.0       0.2       0.0       0.0
 3 O  dx2y2           0.0       0.0       0.0       0.1       0.0       0.0
 4 C  pz              0.4       0.2       0.6       0.0       1.0       0.3
 4 C  px              0.0       0.0       0.2       0.1       0.0       0.0
 4 C  py              0.4       0.2       1.1       0.2       0.4       0.1
 4 C  dz2             4.1       0.9       0.3       0.3       0.3       0.2
 4 C  dxz             0.5       2.4       0.1       0.0       1.4       0.2
 4 C  dyz             1.5       2.7       2.1       0.1       0.0       0.0
 4 C  dx2y2           2.0       0.0       0.0       1.2       0.0       0.0
 4 C  dxy             0.4       2.3       0.6       0.0       0.8       0.1
 4 C  f0              0.0       0.1       0.0       0.1       0.5       0.0
 4 C  f+1             0.1       0.0       0.0       0.0       0.2       0.4
 4 C  f-1             0.1       0.0       0.0       0.0       0.4       1.7
 4 C  f+2             0.1       0.1       0.0       0.0       0.2       0.3
 4 C  f-2             0.0       0.0       1.2       0.1       0.0       0.0
 4 C  f+3             0.1       0.1       0.3       0.0       0.0       0.1
 4 C  f-3             0.0       0.2       0.0       0.1       0.6       0.0
 5 F  pz              3.9      19.2       9.4       0.6       0.6      39.0
 5 F  px             18.0       6.8       0.1       6.8       9.4       4.6
 5 F  py              3.0       1.1      13.7       5.5      15.2       0.6
 6 F  pz              0.2       0.0       5.6       0.6      14.8       1.0
 6 F  px              9.4      16.9       0.0       3.2      16.3       8.3
 6 F  py             15.5      10.7      17.6       2.6       1.8      33.4
 7 F  s               0.0       0.1       0.1       0.0       0.0       0.0
 7 F  pz             25.7       0.4       4.1       0.0      23.5       6.0
 7 F  px              0.1      34.5      27.1       0.3       0.1       0.1
 7 F  py             13.9       0.1       4.6       1.7      10.7       3.3
 8 H  s               0.0       0.0       0.2       2.2       0.0       0.0
 8 H  py              0.0       0.0       0.0       0.2       0.0       0.0
 9 H  s               0.0       0.0       0.4       3.9       0.0       0.0
 9 H  py              0.0       0.0       0.0       0.3       0.0       0.0
10 H  s               0.0       0.0       0.4       3.8       0.0       0.0
10 H  pz              0.0       0.0       0.0       0.4       0.0       0.0

                     24        25        26        27        28        29   
                  -1.10587  -1.08155  -1.03618  -0.99702  -0.93639  -0.91274
                   2.00000   2.00000   2.00000   2.00000   2.00000   2.00000
                  --------  --------  --------  --------  --------  --------
 0 C  s               1.5       4.1       0.0       1.8       0.0       0.1
 0 C  pz              0.6       0.1       6.1       0.2       3.4       0.4
 0 C  px              1.7       6.4       0.0      15.4       0.0       1.1
 0 C  py              1.9       0.0       2.4       0.2       1.3       1.2
 0 C  dz2             0.0       0.1       0.0       0.1       0.0       0.0
 0 C  dxz             0.2       0.0       1.2       0.0       0.1       0.0
 0 C  dyz             0.0       0.0       0.0       0.1       0.0       0.2
 0 C  dx2y2           0.0       0.4       0.0       0.5       0.0       0.0
 0 C  dxy             0.7       0.0       0.5       0.0       0.0       0.0
 0 C  f+2             0.0       0.0       0.1       0.0       0.0       0.0
 1 O  s               1.4       0.2       0.0       1.2       0.0       0.2
 1 O  pz              4.8       1.0      41.8       4.5       6.2       0.7
 1 O  px              2.2       5.5       0.2      16.6       0.0       1.3
 1 O  py             11.1       3.7      16.4      15.0       2.4       1.7
 1 O  dz2             0.0       0.0       0.1       0.1       0.1       0.0
 1 O  dxz             0.0       0.0       0.0       0.0       0.2       0.0
 1 O  dx2y2           0.0       0.2       0.0       0.4       0.0       0.0
 2 C  s               1.5       1.2       0.0       0.4       0.0       0.7
 2 C  pz              2.3       0.8      13.4       0.5      11.5       0.2
 2 C  px              8.0      13.0       0.1       4.5       0.1       0.9
 2 C  py              4.7       3.4       5.4       1.6       4.6       0.5
 2 C  dz2             0.0       0.0       0.9       0.2       4.2       0.4
 2 C  dxz             0.1       0.0       1.0       0.1       0.0       2.3
 2 C  dyz             0.1       0.5       0.2       0.4       1.2       0.8
 2 C  dx2y2           0.0       0.6       0.1       2.1       1.5       2.1
 2 C  dxy             0.3       0.0       0.5       0.1       0.0       6.7
 2 C  f+1             0.0       0.0       0.2       0.0       0.3       0.0
 2 C  f-1             0.0       0.0       0.4       0.1       0.3       0.0
 2 C  f+2             0.0       0.0       0.0       0.3       0.0       0.2
 2 C  f-2             0.1       0.0       0.0       0.1       0.1       0.2
 2 C  f+3             0.0       0.0       0.1       0.2       0.1       0.4
 2 C  f-3             0.0       0.0       0.0       0.5       0.2       0.3
 3 O  s               5.9       3.3       0.0       0.9       0.0       0.1
 3 O  pz              4.8       5.6       2.9       3.1      41.2       1.6
 3 O  px             11.6       1.6       0.0       1.8       0.3      61.7
 3 O  py             14.9      12.9       1.1       6.9      16.7       0.9
 3 O  dz2             0.0       0.0       0.2       0.0       0.2       0.0
 3 O  dxz             0.1       0.0       0.0       0.0       0.0       0.0
 3 O  dyz             0.1       0.2       0.1       0.0       0.1       0.0
 3 O  dx2y2           0.0       0.1       0.1       0.0       0.1       0.0
 3 O  dxy             0.4       0.1       0.0       0.0       0.0       0.1
 4 C  s               0.3       1.4       0.0       1.0       0.0       1.5
 4 C  pz              0.0       0.0       0.3       0.1       0.2       0.1
 4 C  px              1.5       5.1       0.0       4.4       0.0       5.6
 4 C  py              0.1       0.3       0.1       0.4       0.1       0.4
 4 C  dz2             0.5       0.8       0.0       0.2       0.0       0.1
 4 C  dxz             0.1       0.0       0.4       0.0       0.4       0.0
 4 C  dx2y2           0.8       2.0       0.0       0.4       0.0       0.5
 4 C  dxy             0.8       0.3       0.2       0.3       0.1       0.0
 4 C  f0              0.2       0.1       0.0       0.1       0.0       0.0
 4 C  f-3             0.1       0.0       0.0       0.0       0.0       0.0
 5 F  pz              0.2       0.1       0.0       0.1       0.0       0.0
 5 F  px              4.4       4.4       0.1       1.5       0.1       0.7
 5 F  py              0.2       0.1       0.0       0.0       0.0       0.0
 6 F  px              3.9       4.3       0.1       1.4       0.1       0.7
 6 F  py              0.5       0.2       0.0       0.1       0.0       0.0
 7 F  pz              0.0       0.1       0.0       0.0       0.0       0.1
 7 F  px              1.1       5.3       0.0       0.6       0.0       0.8
 7 F  py              0.1       0.5       0.0       0.2       0.0       0.3
 8 H  s               0.3       3.6       0.0       4.6       0.0       0.2
 8 H  pz              0.0       0.1       0.0       0.1       0.0       0.0
 8 H  py              0.0       0.2       0.0       0.2       0.0       0.0
 9 H  s               1.6       2.2       1.2       1.7       0.8       0.5
 9 H  px              0.0       0.0       0.0       0.2       0.0       0.0
 9 H  py              0.1       0.2       0.1       0.1       0.1       0.0
10 H  s               1.5       2.3       1.3       1.9       1.0       0.4
10 H  pz              0.1       0.2       0.1       0.1       0.1       0.0
10 H  px              0.0       0.0       0.0       0.2       0.0       0.0

                     30        31        32        33        34        35   
                  -0.87346  -0.85835  -0.38294  -0.29057  -0.25872  -0.20806
                   2.00000   2.00000   0.00000   0.00000   0.00000   0.00000
                  --------  --------  --------  --------  --------  --------
 0 C  s               0.0       0.0       0.0       0.2       1.0       4.2
 0 C  pz             14.3      30.3       0.0       0.0       0.0       0.0
 0 C  px              1.3       0.1       0.0       1.7       6.3      26.7
 0 C  py             34.0      12.3       0.0       0.1       0.2       0.8
 0 C  dz2             0.1       1.2       0.1       0.1       0.3       1.5
 0 C  dxz             0.8       1.5       0.2       0.0       0.0       0.1
 0 C  dyz             0.8       0.3       0.0       0.0       0.0       0.0
 0 C  dx2y2           0.1       0.6       0.1       0.2       0.7       4.3
 0 C  dxy             1.4       0.4       0.1       0.0       0.0       0.7
 0 C  f+1             0.0       0.0       0.0       0.0       0.1       0.4
 0 C  f+2             0.0       0.1       0.0       0.0       0.0       0.0
 0 C  f-2             0.1       0.0       0.0       0.0       0.0       0.0
 0 C  f+3             0.1       0.0       0.0       0.0       0.1       0.6
 0 C  f-3             0.1       0.1       0.0       0.0       0.0       0.2
 1 O  s               0.3       0.0       0.0       1.0       3.0       6.0
 1 O  pz              1.2       7.6       7.1       0.2       0.3       0.4
 1 O  px              0.2       0.0       0.0       0.0       0.3      11.8
 1 O  py              3.0       3.1       2.9       0.4       0.8       2.0
 1 O  dz2             0.0       0.0       0.6       0.1       0.3       0.9
 1 O  dxz             0.2       0.4       0.4       0.1       0.0       0.0
 1 O  dyz             0.0       0.0       0.1       0.0       0.0       0.1
 1 O  dx2y2           0.1       0.0       0.1       0.3       0.7       1.7
 1 O  dxy             0.5       0.2       0.2       0.1       0.0       0.1
 1 O  f+3             0.0       0.0       0.0       0.0       0.0       0.1
 2 C  s               0.2       0.0       0.0       2.0       0.1       1.9
 2 C  pz              0.1       0.4      24.4       0.1       0.7       0.2
 2 C  px              0.8       0.0       0.1       1.3       1.0       0.2
 2 C  py              0.2       0.2       9.7       0.5       1.6       0.4
 2 C  dz2             0.0       1.1       0.6       0.6       0.1       0.3
 2 C  dxz             0.0       0.0       1.4       0.0       1.2       0.0
 2 C  dyz             0.0       0.3       0.3       0.3       0.1       0.3
 2 C  dx2y2           0.0       0.3       0.4       0.8       1.4       0.1
 2 C  dxy             0.1       0.0       0.5       0.0       2.4       0.1
 2 C  f+1             0.0       0.1       0.0       0.1       0.0       0.0
 2 C  f-1             0.0       0.0       1.1       0.0       0.0       0.1
 2 C  f+2             0.0       0.0       0.0       0.0       0.1       0.4
 2 C  f-2             0.0       0.0       0.0       0.1       0.3       0.1
 2 C  f+3             0.0       0.1       0.0       0.2       0.4       0.0
 2 C  f-3             0.0       0.0       0.2       0.2       0.1       0.9
 3 O  s               0.0       0.0       0.0       0.1       0.2       0.4
 3 O  pz              0.1       1.8      16.0       0.0       0.0       0.1
 3 O  px              0.6       0.0       0.1       0.0       2.8       0.0
 3 O  py              0.1       0.8       6.4       0.1       0.2       0.3
 3 O  dz2             0.0       0.0       1.1       0.0       0.0       0.0
 3 O  dxz             0.0       0.0       0.1       0.0       0.1       0.0
 3 O  dyz             0.0       0.0       0.4       0.0       0.0       0.0
 3 O  dx2y2           0.0       0.0       0.4       0.0       0.0       0.0
 3 O  dxy             0.0       0.0       0.0       0.0       0.2       0.0
 3 O  f-1             0.0       0.0       0.2       0.0       0.0       0.0
 4 C  s               0.1       0.0       0.0      25.4       0.7       0.2
 4 C  pz              0.0       0.0       5.9       0.0       9.5       2.7
 4 C  px              0.1       0.0       0.0       8.0       0.1      10.3
 4 C  py              0.0       0.0       2.3       0.0      23.9       3.4
 4 C  dz2             0.0       0.0       0.3       0.1       0.0       0.5
 4 C  dxz             0.0       0.0       3.3       0.0       0.4       0.1
 4 C  dyz             0.0       0.0       0.0       0.1       3.8       1.0
 4 C  dx2y2           0.0       0.0       0.0       0.1       1.4       0.2
 4 C  dxy             0.0       0.0       1.4       0.1       1.5       0.5
 4 C  f0              0.0       0.0       0.2       1.4       0.0       0.0
 4 C  f+1             0.0       0.0       0.1       0.9       0.0       0.0
 4 C  f-1             0.0       0.0       0.0       0.5       0.1       0.0
 4 C  f+2             0.0       0.0       0.2       1.1       0.4       0.0
 4 C  f-2             0.0       0.0       0.1       0.3       0.0       0.1
 4 C  f+3             0.0       0.0       0.1       1.1       0.0       0.0
 4 C  f-3             0.0       0.0       0.1       0.4       0.3       0.0
 5 F  s               0.0       0.0       0.4       3.1       0.2       0.5
 5 F  pz              0.0       0.0       0.0       2.7       3.1       1.6
 5 F  px              0.0       0.0       2.5       1.3       1.1       0.0
 5 F  py              0.0       0.0       0.9       8.5       0.1       0.8
 5 F  dz2             0.0       0.0       0.1       0.1       0.1       0.0
 5 F  dxz             0.0       0.0       0.0       0.2       0.3       0.1
 5 F  dyz             0.0       0.0       0.0       0.8       0.2       0.3
 5 F  dx2y2           0.0       0.0       0.0       0.5       0.1       0.1
 5 F  dxy             0.0       0.0       0.2       0.7       0.0       0.0
 6 F  s               0.0       0.0       0.5       3.0       0.1       0.5
 6 F  pz              0.0       0.0       1.4      11.4       0.1       1.5
 6 F  px              0.0       0.0       2.5       0.4       0.3       0.0
 6 F  py              0.0       0.0       0.0       0.5       3.5       0.8
 6 F  dz2             0.0       0.0       0.0       1.7       0.0       0.2
 6 F  dxz             0.0       0.0       0.2       0.4       0.0       0.0
 6 F  dyz             0.0       0.0       0.0       0.2       0.5       0.2
 6 F  dxy             0.0       0.0       0.0       0.0       0.2       0.0
 7 F  s               0.0       0.0       0.0       2.3       3.6       0.2
 7 F  pz              0.0       0.0       0.6       3.1       4.3       0.2
 7 F  px              0.0       0.0       0.0       0.2       1.7       1.0
 7 F  py              0.0       0.0       0.5       5.8       8.2       0.7
 7 F  dxz             0.0       0.0       0.0       0.0       0.1       0.1
 7 F  dyz             0.0       0.0       0.0       1.2       1.2       0.1
 7 F  dx2y2           0.0       0.0       0.0       0.6       0.5       0.0
 7 F  dxy             0.0       0.0       0.0       0.0       0.2       0.3
 8 H  s              23.9       0.0       0.0       0.0       0.0       0.0
 8 H  pz              0.1       0.4       0.0       0.0       0.0       0.0
[...]
 7 F  f+3             0.3       0.0       0.0       0.3       0.1       0.8
 7 F  f-3             0.0       0.2       0.3       0.4       0.5       0.2

                    252       253       254       255       256       257   
                   8.26251   8.30755   8.39472   8.40396   8.46572   8.50547
                   0.00000   0.00000   0.00000   0.00000   0.00000   0.00000
                  --------  --------  --------  --------  --------  --------
 1 O  dx2y2           0.1       0.0       0.0       0.0       0.0       0.0
 2 C  s               0.1       0.2       0.0       0.0       0.0       0.0
 2 C  pz              0.0       0.0       0.0       0.0       0.1       0.1
 2 C  px              0.0       0.2       0.0       0.0       0.0       0.1
 2 C  dx2y2           0.1       0.0       0.0       0.0       0.0       0.1
 4 C  s               0.8       2.2       0.0       0.0       0.0       0.0
 4 C  pz              0.0       0.0       1.6       0.7       0.1       0.0
 4 C  px              0.7       1.4       0.0       0.1       0.0       0.0
 4 C  py              0.0       0.1       0.6       1.7       0.1       0.1
 4 C  dz2             0.2       0.0       0.5       0.0       1.3       0.1
 4 C  dxz             0.0       0.0       0.4       0.0       0.8       0.9
 4 C  dyz             0.0       0.0       0.0       0.7       0.3       1.0
 4 C  dx2y2           0.5       0.1       0.1       0.1       0.7       0.2
 4 C  dxy             0.2       0.0       0.2       0.2       0.2       1.4
 4 C  f0              0.0       0.3       0.0       0.0       0.0       0.0
 4 C  f+2             0.0       0.2       0.0       0.0       0.1       0.1
 4 C  f+3             0.1       0.0       0.0       0.0       0.1       0.0
 5 F  s               0.1       0.3       1.0       0.4       0.0       0.0
 5 F  pz              0.0       0.0       0.2       0.2       0.1       0.3
 5 F  px              0.3       0.0       0.3       0.1       0.1       0.2
 5 F  py              0.0       0.3       0.6       0.2       0.2       0.0
 5 F  dz2             1.9       1.1       2.8       0.1       1.7      15.3
 5 F  dxz             3.8       1.3       6.2       2.0       2.9       0.0
 5 F  dyz             0.2       9.9      11.1       8.4       1.1      11.2
 5 F  dx2y2           9.8       9.9       1.9       1.4      20.5       0.4
 5 F  dxy            12.9       7.2      17.8       5.7       0.0       3.7
 5 F  f0              0.2       0.0       0.6       0.2       0.1       0.0
 5 F  f+1             0.1       0.0       0.0       0.0       0.0       0.1
 5 F  f-1             0.1       0.0       0.0       0.0       0.3       1.4
 5 F  f+2             0.1       0.1       0.2       0.2       0.0       0.5
 5 F  f-2             0.3       0.1       1.1       0.3       0.2       0.0
 5 F  f+3             0.1       0.4       0.8       0.4       0.2       0.1
 5 F  f-3             0.8       0.1       0.0       0.0       1.1       0.0
 6 F  s               0.1       0.3       1.1       0.2       0.0       0.0
 6 F  pz              0.0       0.3       1.0       0.2       0.1       0.0
 6 F  px              0.3       0.0       0.2       0.0       0.2       0.2
 6 F  py              0.0       0.0       0.0       0.1       0.2       0.3
 6 F  dz2             1.4      25.3      22.4       6.1      10.7       0.1
 6 F  dxz            20.6       3.0      17.4       2.1       1.6       6.3
 6 F  dyz             0.2       1.5       4.2       3.4       8.4      20.3
 6 F  dx2y2           3.4       0.1       0.7       0.0       2.3       3.8
 6 F  dxy             1.3       0.0       1.1       0.1       2.2       0.1
 6 F  f0              0.1       0.4       0.8       0.2       0.6       0.0
 6 F  f+1             0.7       0.3       1.4       0.3       0.0       0.4
 6 F  f-1             0.0       0.1       0.5       0.2       0.6       1.3
 6 F  f+2             0.6       0.0       0.1       0.0       0.3       0.4
 6 F  f-2             0.2       0.0       0.3       0.0       0.2       0.1
 7 F  s               0.0       0.3       0.0       1.4       0.0       0.0
 7 F  pz              0.0       0.1       0.0       0.5       0.4       0.0
 7 F  px              0.3       0.0       0.0       0.0       0.0       0.5
 7 F  py              0.0       0.2       0.0       1.0       0.2       0.0
 7 F  dz2             0.6       0.2       0.0       0.0      24.6       2.1
 7 F  dxz            10.8       0.2       0.1       1.0       0.0       6.6
 7 F  dyz             0.1      18.1       0.3      36.3       3.4       0.4
 7 F  dx2y2           0.0      11.9       0.0      17.5       8.0       1.0
 7 F  dxy            22.6       0.7       0.0       2.1       0.7      16.0
 7 F  f0              0.1       0.0       0.0       0.5       0.3       0.4
 7 F  f+1             0.0       0.0       0.0       0.0       0.2       0.0
 7 F  f-1             0.0       0.1       0.1       0.4       1.5       0.0
 7 F  f+2             0.0       0.4       0.0       1.9       0.0       0.0
 7 F  f-2             1.2       0.0       0.0       0.1       0.0       0.8
 7 F  f+3             0.9       0.0       0.0       0.1       0.2       0.7
 7 F  f-3             0.1       0.3       0.0       0.6       0.3       0.1

                    258       259       260       261       262       263   
                  20.62929  21.09068  21.74906  41.46883  41.64526  54.31402
                   0.00000   0.00000   0.00000   0.00000   0.00000   0.00000
                  --------  --------  --------  --------  --------  --------
 0 C  s              97.4       0.2       0.6       0.0       0.1       0.0
 1 O  s               0.2       0.0       0.6       3.7      96.1       0.0
 1 O  pz              0.0       0.0       0.1       0.0       0.0       0.0
 1 O  px              0.2       0.0       0.3       0.0       0.0       0.0
 1 O  py              0.0       0.0       0.2       0.0       0.0       0.0
 2 C  s               0.6       0.3      94.4       0.0       0.0       0.0
 2 C  px              0.0       0.1       0.3       0.0       0.0       0.0
 2 C  dyz             0.0       0.0       0.2       0.0       0.0       0.0
 3 O  s               0.0       0.0       1.1      96.2       3.7       0.0
 3 O  pz              0.0       0.0       0.2       0.0       0.0       0.0
 3 O  py              0.0       0.0       0.5       0.0       0.0       0.0
 4 C  s               0.1      96.0       0.4       0.0       0.0       0.0
 5 F  s               0.0       0.3       0.0       0.0       0.0      51.2
 5 F  py              0.0       0.2       0.0       0.0       0.0       0.0
 6 F  s               0.0       0.3       0.0       0.0       0.0      48.3
 6 F  pz              0.0       0.3       0.0       0.0       0.0       0.0
 7 F  s               0.0       0.3       0.0       0.0       0.0       0.4
 7 F  pz              0.0       0.1       0.0       0.0       0.0       0.0
 7 F  py              0.0       0.2       0.0       0.0       0.0       0.0
 8 H  s               0.2       0.0       0.0       0.0       0.0       0.0
 9 H  s               0.2       0.0       0.0       0.0       0.0       0.0
 9 H  py              0.1       0.0       0.0       0.0       0.0       0.0
10 H  s               0.2       0.0       0.0       0.0       0.0       0.0
10 H  pz              0.1       0.0       0.0       0.0       0.0       0.0

                    264       265   
                  54.40517  54.46314
                   0.00000   0.00000
                  --------  --------
 4 C  s               0.1       0.0
 5 F  s              38.7      10.0
 6 F  s              35.2      16.4
 7 F  s              25.9      73.4


                      *****************************
                      * MAYER POPULATION ANALYSIS *
                      *****************************

  NA   - Mulliken gross atomic population
  ZA   - Total nuclear charge
  QA   - Mulliken gross atomic charge
  VA   - Mayer's total valence
  BVA  - Mayer's bonded valence
  FA   - Mayer's free valence

  ATOM       NA         ZA         QA         VA         BVA        FA
  0 C      6.1932     6.0000    -0.1932     3.8541     3.8541    -0.0000
  1 O      8.2052     8.0000    -0.2052     2.1780     2.1780    -0.0000
  2 C      5.7467     6.0000     0.2533     4.2899     4.2899     0.0000
  3 O      8.3054     8.0000    -0.3054     2.2096     2.2096    -0.0000
  4 C      5.5450     6.0000     0.4550     4.5152     4.5152     0.0000
  5 F      9.1461     9.0000    -0.1461     1.1656     1.1656    -0.0000
  6 F      9.1479     9.0000    -0.1479     1.1617     1.1617    -0.0000
  7 F      9.1428     9.0000    -0.1428     1.1745     1.1745     0.0000
  8 H      0.8558     1.0000     0.1442     0.9639     0.9639    -0.0000
  9 H      0.8552     1.0000     0.1448     0.9694     0.9694     0.0000
 10 H      0.8567     1.0000     0.1433     0.9686     0.9686     0.0000

  Mayer bond orders larger than 0.100000
B(  0-C ,  1-O ) :   0.8772 B(  0-C ,  8-H ) :   0.9686 B(  0-C ,  9-H ) :   0.9736 
B(  0-C , 10-H ) :   0.9745 B(  1-O ,  2-C ) :   1.2499 B(  2-C ,  3-O ) :   2.0537 
B(  2-C ,  4-C ) :   0.9541 B(  4-C ,  5-F ) :   1.1639 B(  4-C ,  6-F ) :   1.1577 
B(  4-C ,  7-F ) :   1.1843 

-------
TIMINGS
-------

Total SCF time: 0 days 0 hours 1 min 23 sec 

Total time                  ....      83.389 sec
Sum of individual times     ....      81.466 sec  ( 97.7%)

SCF preparation             ....       0.209 sec  (  0.3%)
Fock matrix formation       ....      80.043 sec  ( 96.0%)
  Startup                   ....       0.059 sec  (  0.1% of F)
  Split-RI-J                ....       3.388 sec  (  4.2% of F)
  Chain of spheres X        ....      67.926 sec  ( 84.9% of F)
  XC integration            ....       9.524 sec  ( 11.9% of F)
    XC Preparation          ....       0.000 sec  (  0.0% of XC)
    Basis function eval.    ....       2.134 sec  ( 22.4% of XC)
    Density eval.           ....       1.766 sec  ( 18.5% of XC)
    XC-Functional eval.     ....       2.159 sec  ( 22.7% of XC)
    XC-Potential eval.      ....       2.684 sec  ( 28.2% of XC)
Diagonalization             ....       0.000 sec  (  0.0%)
Density matrix formation    ....       0.244 sec  (  0.3%)
Total Energy calculation    ....       0.041 sec  (  0.0%)
Population analysis         ....       0.123 sec  (  0.1%)
Orbital Transformation      ....       0.066 sec  (  0.1%)
Orbital Orthonormalization  ....       0.000 sec  (  0.0%)
DIIS solution               ....       0.292 sec  (  0.4%)
  MO trafo                  ....       0.000 sec  (  0.0 % of DIIS)
  Orb grad                  ....       0.000 sec  (  0.0 % of DIIS)
  Energy W gradient         ....       0.000 sec  (  0.0 % of DIIS)
  DIIS error                ....       0.009 sec  (  3.2 % of DIIS)
  DIIS work                 ....       0.240 sec  ( 82.4 % of DIIS)
  Form Q                    ....       0.000 sec  (  0.0 % of DIIS)
  Form QpQm                 ....       0.000 sec  (  0.0 % of DIIS)
  Exp/Cayley                ....       0.000 sec  (  0.0 % of DIIS)
  Orb update                ....       0.000 sec  (  0.0 % of DIIS)
  Wake-sleep                ....       0.011 sec  (  3.6 % of DIIS)
SOSCF solution              ....       0.255 sec  (  0.3%)
  MO trafo                  ....       0.085 sec  ( 33.5 % of SOSCF)
  Orb grad                  ....       0.003 sec  (  1.1 % of SOSCF)
  Rot update                ....       0.103 sec  ( 40.5 % of SOSCF)
  Step                      ....       0.063 sec  ( 24.8 % of SOSCF)
Grid generation             ....       0.194 sec  (  0.2%)
Finished LeanSCF after  83.5 sec

Maximum memory used throughout the entire LEANSCF-calculation: 30.6 MB
------------------   -----------------
gCP correction             0.013761751
------------------   -----------------

-------------------------   --------------------
FINAL SINGLE POINT ENERGY      -566.155949742378
-------------------------   --------------------


------------------------------------------------------------------------------
                              ORCA PROPERTY CALCULATIONS
------------------------------------------------------------------------------

GBWName                                 ... sp_gas.gbw
Number of atoms                         ...     11
Number of basis functions               ...    266
Max core memory                         ...   1024 MB

Electric properties:
Dipole moment                           ... YES
Quadrupole moment                       ...  NO
Static polarizability (Dipole/Dipole)   ...  NO
Static polarizability (Dipole/Quad.)    ...  NO
Static polarizability (Quad./Quad.)     ...  NO
Static polarizability (Velocity)        ...  NO

Atomic electric properties:
Dipole moment                           ...  NO
Quadrupole moment                       ...  NO
Static polarizability                   ...  NO

Choice of electric origin               ... Center of mass
Position of electric origin             ...     0.001517    -0.007711    -0.003678

General magnetic properties:
Magnetizability                         ...  NO

EPR properties:
g-Tensor (aka g-matrix)                 ...  NO
Zero-Field splitting spin-orbit         ...  NO
Zero-field splitting spin-spin          ...  NO
Hyperfine couplings                     ...  NO (   0 nuclei)
Quadrupole couplings                    ...  NO (   0 nuclei)
Contact density                         ...  NO (   0 nuclei)

NMR properties:
Chemical shifts                         ...  NO (   0 nuclei)
Spin-rotation constants                 ...  NO (   0 nuclei)
Spin-spin couplings                     ...  NO (   0 nuclei,    0 pairs)

Choice of magnetic origin               ... GIAO
Position of magnetic origin             ...     0.000000     0.000000     0.000000

Properties with geometric perturbations:
SCF Hessian                             ...  NO
IR spectrum                             ...  NO
VCD spectrum                            ...  NO
X-ray spectroscopy properties:
SCF XES/XAS/RIXS spectra                ...  NO


-------------
DIPOLE MOMENT
-------------

Method             : SCF
Type of density    : Electron Density
Multiplicity       :   1
Irrep              :   0
Energy             :  -566.1697114932776458 Eh
Relativity type    : 
Basis              : AO
                                X                 Y                 Z
Electronic contribution:     11.495850012      -0.528819639       0.498380178
Nuclear contribution   :    -12.678827665       0.049603774      -0.894436314
                        -----------------------------------------
Total Dipole Moment    :     -1.182977653      -0.479215865      -0.396056136
                        -----------------------------------------
Magnitude (a.u.)       :      1.336392321
Magnitude (Debye)      :      3.396839329



--------------------
Rotational spectrum 
--------------------
 
Rotational constants in cm-1:             0.119584             0.049757             0.043631 
Rotational constants in MHz :          3585.025787          1491.665716          1308.013133 

Dipole components along the rotational axes: 
x,y,z [a.u.] :    -1.195857    -0.596516    -0.006233 
x,y,z [Debye]:    -3.039627    -1.516223    -0.015843 

 

Dipole moment calculation done in   0.0 sec 

Maximum memory used throughout the entire PROP-calculation: 19.6 MB

--------------------------------
SUGGESTED CITATIONS FOR THIS RUN
--------------------------------

Below you find a list of papers that are relevant to this ORCA run
We neither can nor want to force you to cite these papers, but we appreciate if you do
You receive ORCA, which is the product of decades of hard work by many enthusiastic individuals, for free
The only thing we kindly ask in return is that you cite our papers,
We deeply appreciate it, if you show your appreciation for ORCA by not just citing the generic ORCA reference.

Please note that relegating all ORCA citations to the supporting information does *not* help us.
SI sections are not indexed - citations you put there will not count into any citation statistics
But we need these citations in order to attract the funding resources that allow us to do what we are doing

Therefore, if you are a happy ORCA user, please consider citing a few of the papers listed below in the main body of your paper

In addition to the list printed below, the program has created the file sp_gas.bibtex that contains the list in bibtex format
You can import this file easily into all common literature databanks and citation aid programs


List of essential papers. We consider these as the minimum necessary citations

  1. Neese,F.
     Software update: the ORCA program system, version 5.0
     WIRES Comput. Molec. Sci., 2022 12(1)e1606
     doi.org/10.1002/wcms.1606

List of papers to cite with high priority. The work reported in these papers was absolutely
necessary for this run to complete.
Our perspective: the developers of density functionals and basis sets usually get cited in chemistry papers
Good! But without the algorithms to do something with them, the functionals or basis sets would not do anything.
Hence, in our opinion, the algorithm design and method developments papers are equally worthy of getting cited

  1. Neese,F.
     An improvement of the resolution of the identity approximation for the formation of the Coulomb matrix
     J. Comp. Chem., 2003 24(14)1740-1747
     doi.org/10.1002/jcc.10318
  2. Neese,F.; Wennmohs,F.; Hansen,A.; Becker,U.
     Efficient, approximate and parallel Hartree-Fock and hybrid DFT calculations. A 'chain-of-spheres' algorithm for the Hartree-Fock exchange
     Chem. Phys., 2009 356(1-3)98-109
     doi.org/10.1016/j.chemphys.2008.10.036
  3. Helmich-Paris,B.; de Souza,B.; Neese,F.; Izsák,R.
     An improved chain of spheres for exchange algorithm
     J. Chem. Phys., 2021 155 104109
     doi.org/doi: 10.1063/5.0058766.
  4. Neese,F.
     The SHARK Integral Generation and Digestion System
     J. Comp. Chem., 2022  1-16
     doi.org/10.1002/jcc.26942

List of suggested additional citations. These are papers that are important in the 'surrounding' of 
of this run, or papers that preceded the highly important papers. If you like your results we are grateful for a citation.

  1. Izsak,R.; Neese,F.
     An overlap fitted chain of spheres exchange method
     J. Chem. Phys., 2011 135 144105
     doi.org/10.1063/1.3646921
  2. Izsak,R.; Hansen,A.; Neese,F.
     The resolution of identity and chain of spheres approximations for the LPNO-CCSD singles Fock term
     Molec. Phys., 2012 110 2413-2417
     doi.org/10.1080/00268976.2012.687466
  3. Neese,F.
     The ORCA program system
     WIRES Comput. Molec. Sci., 2012 2(1)73-78
     doi.org/10.1002/wcms.81
  4. Izsak,R.; Neese,F.; Klopper,W.
     Robust fitting techniques in the chain of spheres approximation to the Fock exchange: The role of the complementary space
     J. Chem. Phys., 2013 139 
     doi.org/10.1063/1.4819264
  5. Neese,F.
     Software update: the ORCA program system, version 4.0
     WIRES Comput. Molec. Sci., 2018 8(1)1-6
     doi.org/10.1002/wcms.1327
  6. Neese,F.; Wennmohs,F.; Becker,U.; Riplinger,C.
     The ORCA quantum chemistry program package
     J. Chem. Phys., 2020 152 Art. No. L224108
     doi.org/10.1063/5.0004608

List of optional additional citations

  1. Neese,F.
     Approximate second-order SCF convergence for spin unrestricted wavefunctions
     Chem. Phys. Lett., 2000 325(1-3)93-98
     doi.org/10.1016/s0009-2614(00)00662-x

Timings for individual modules:

Sum of individual times          ...       85.365 sec (=   1.423 min)
Startup calculation              ...        1.492 sec (=   0.025 min)   1.7 %
SCF iterations                   ...       83.768 sec (=   1.396 min)  98.1 %
Property calculations            ...        0.105 sec (=   0.002 min)   0.1 %
                             ****ORCA TERMINATED NORMALLY****
TOTAL RUN TIME: 0 days 0 hours 1 minutes 26 seconds 20 msec
