
                                 *****************
                                 * O   R   C   A *
                                 *****************

                                            #,                                       
                                            ###                                      
                                            ####                                     
                                            #####                                    
                                            ######                                   
                                           ########,                                 
                                     ,,################,,,,,                         
                               ,,#################################,,                 
                          ,,##########################################,,             
                       ,#########################################, ''#####,          
                    ,#############################################,,   '####,        
                  ,##################################################,,,,####,       
                ,###########''''           ''''###############################       
              ,#####''   ,,,,##########,,,,          '''####'''          '####       
            ,##' ,,,,###########################,,,                        '##       
           ' ,,###''''                  '''############,,,                           
         ,,##''                                '''############,,,,        ,,,,,,###''
      ,#''                                            '''#######################'''  
     '                                                          ''''####''''         
             ,#######,   #######,   ,#######,      ##                                
            ,#'     '#,  ##    ##  ,#'     '#,    #''#        ,####,   ,####,        
            ##       ##  ##   ,#'  ##            #'  '#       #'       #'  '#        
            ##       ##  #######   ##           ,######,      #####,   #    #        
            '#,     ,#'  ##    ##  '#,     ,#' ,#      #,     #,   #   #,  ,#        
             '#######'   ##     ##  '#######'  #'      '#     '####' # '####'        



                #########################################################
                #                        -***-                          #
                #          Department of theory and spectroscopy        #
                #                                                       #
                #                      Frank Neese                      #
                #                                                       #
                #     Directorship, Architecture, Infrastructure        #
                #                    SHARK, DRIVERS                     #
                #        Core code/Algorithms in most modules           #
                #                                                       #
                #        Max Planck Institute fuer Kohlenforschung      #
                #                Kaiser Wilhelm Platz 1                 #
                #                 D-45470 Muelheim/Ruhr                 #
                #                      Germany                          #
                #                                                       #
                #                  All rights reserved                  #
                #                        -***-                          #
                #########################################################


                         Program Version 6.0.0  -   RELEASE  -


 With contributions from (in alphabetic order):
   Daniel Aravena         : Magnetic Suceptibility
   Michael Atanasov       : Ab Initio Ligand Field Theory (pilot matlab implementation)
   Alexander A. Auer      : GIAO ZORA, VPT2 properties, NMR spectrum
   Ute Becker             : All parallelization in ORCA, NUMFREQ, NUMCALC
   Giovanni Bistoni       : ED, misc. LED, open-shell LED, HFLD
   Martin Brehm           : Molecular dynamics
   Dmytro Bykov           : pre 5.0 version of the SCF Hessian
   Marcos Casanova-Páez   : Triplet and SCS-CIS(D). UHF-(DLPNO)-IP/EA/STEOM-CCSD. UHF-CVS-IP/STEOM-CCSD
   Vijay G. Chilkuri      : MRCI spin determinant printing, contributions to CSF-ICE
   Pauline Colinet        : FMM embedding
   Dipayan Datta          : RHF DLPNO-CCSD density
   Achintya Kumar Dutta   : EOM-CC, STEOM-CC
   Nicolas Foglia         : Exact transition moments, OPA infrastructure, MCD improvements
   Dmitry Ganyushin       : Spin-Orbit,Spin-Spin,Magnetic field MRCI
   Miquel Garcia          : C-PCM and meta-GGA Hessian, CCSD/C-PCM, Gaussian charge scheme
   Tiago L. C. Gouveia    : GS-ROHF, GS-ROCIS
   Yang Guo               : DLPNO-NEVPT2, F12-NEVPT2, CIM, IAO-localization
   Andreas Hansen         : Spin unrestricted coupled pair/coupled cluster methods
   Ingolf Harden          : AUTO-CI MPn and infrastructure 
   Benjamin Helmich-Paris : MC-RPA, TRAH-(SCF,CASSCF), AVAS, COSX integrals, SCF dyn. polar.
   Lee Huntington         : MR-EOM, pCC
   Robert Izsak           : Overlap fitted RIJCOSX, COSX-SCS-MP3, EOM
   Riya Kayal             : Wick's Theorem for AUTO-CI, AUTO-CI UHF-CCSDT
   Emily Kempfer          : AUTO-CI, RHF CISDT and CCSDT
   Christian Kollmar      : KDIIS, OOCD, Brueckner-CCSD(T), CCSD density, CASPT2, CASPT2-K, improved NEVPT2
   Axel Koslowski         : Symmetry handling
   Simone Kossmann        : Meta GGA functionals, TD-DFT gradient, OOMP2, (MP2 Hessian; deprecated post 5.0)
   Lucas Lang             : DCDCAS
   Marvin Lechner         : AUTO-CI (C++ implementation), FIC-MRCC
   Spencer Leger          : CASSCF response
   Dagmar Lenk            : GEPOL surface, SMD, ORCA-2-JSON
   Dimitrios Liakos       : Extrapolation schemes; Compound Job, initial MDCI parallelization
   Dimitrios Manganas     : Further ROCIS development; embedding schemes. LFT, Crystal Embedding
   Dimitrios Pantazis     : SARC Basis sets
   Anastasios Papadopoulos: AUTO-CI, single reference methods and gradients
   Taras Petrenko         : pre 6.0 DFT Hessian and TD-DFT gradient, (ASA, deprecated), ECA, 1-Electron XAS/XES, NRVS
   Peter Pinski           : DLPNO-MP2, DLPNO-MP2 Gradient
   Christoph Reimann      : Effective Core Potentials
   Marius Retegan         : Local ZFS, SOC
   Christoph Riplinger    : Optimizer, TS searches, QM/MM, DLPNO-CCSD(T), (RO)-DLPNO pert. Triples
   Michael Roemelt        : Original ROCIS implementation
   Masaaki Saitow         : Open-shell DLPNO-CCSD energy and density
   Barbara Sandhoefer     : DKH picture change effects
   Kantharuban Sivalingam : CASSCF convergence/infrastructure, NEVPT2 and variants, FIC-MRCI
   Bernardo de Souza      : ESD, SOC TD-DFT
   Georgi Stoychev        : AutoAux, RI-MP2 NMR, DLPNO-MP2 response, X2C
   Van Anh Tran           : RI-MP2 g-tensors
   Willem Van den Heuvel  : Paramagnetic NMR
   Zikuan Wang            : NOTCH, Electric field optimization 
   Frank Wennmohs         : Technical directorship and infrastructure
   Hang Xu                : AUTO-CI-Response properties 


 We gratefully acknowledge several colleagues who have allowed us to
 interface, adapt or use parts of their codes:
   Stefan Grimme, W. Hujo, H. Kruse, P. Pracht,  : VdW corrections, initial TS optimization,
                  C. Bannwarth, S. Ehlert,         DFT functionals, gCP, sTDA/sTD-DF
                  L. Wittmann, M. Mueller
   Ed Valeev, F. Pavosevic, A. Kumar             : LibInt (2-el integral package), F12 methods
   Garnet Chan, S. Sharma, J. Yang, R. Olivares  : DMRG
   Ulf Ekstrom                                   : XCFun DFT Library
   Mihaly Kallay                                 : mrcc  (arbitrary order and MRCC methods)
   Frank Weinhold                                : gennbo (NPA and NBO analysis)
   Simon Mueller                                 : openCOSMO-RS
   Christopher J. Cramer and Donald G. Truhlar   : smd solvation model
   Lars Goerigk                                  : TD-DFT with DH, B97 family of functionals
   V. Asgeirsson, H. Jonsson                     : NEB implementation
   FAccTs GmbH                                   : IRC, NEB, NEB-TS, DLPNO-Multilevel, CI-OPT
                                                   MM, QMMM, 2- and 3-layer-ONIOM, Crystal-QMMM,
                                                   LR-CPCM, SF, NACMEs, symmetry and pop. for TD-DFT,
                                                   nearIR, NL-DFT gradient (VV10), updates on ESD,
                                                   ML-optimized integration grids, MBIS, APM,
                                                   GOAT, DOCKER, SOLVATOR, interface openCOSMO-RS
   S Lehtola, MJT Oliveira, MAL Marques          : LibXC Library
   Liviu Ungur et al                             : ANISO software


 Your calculation uses the libint2 library for the computation of 2-el integrals
 For citations please refer to: http://libint.valeyev.net

 Your ORCA version has been built with support for libXC version: 6.2.2
 For citations please refer to: https://libxc.gitlab.io

 This ORCA versions uses:
   CBLAS   interface :  Fast vector & matrix operations
   LAPACKE interface :  Fast linear algebra routines
   SCALAPACK package :  Parallel linear algebra routines
   Shared memory     :  Shared parallel matrices
   BLAS/LAPACK       :  OpenBLAS 0.3.27  USE64BITINT DYNAMIC_ARCH NO_AFFINITY SkylakeX SINGLE_THREADED
        Core in use  :  SkylakeX
   Copyright (c) 2011-2014, The OpenBLAS Project


Your calculation utilizes the geometrical counterpoise correction gCP
Please cite in your paper:
H.Kruse, S. Grimme J.Chem.Phys., 136, (2012), 154101 
   

Your calculation utilizes the atom-pairwise dispersion correction
based on EEQ partial charges (D4)


================================================================================

----- Orbital basis set information -----
Your calculation utilizes the basis: def2-mTZVPP
   Stefan Grimme, Andreas Hansen, Sebastian Ehlert, and Jan-Michael Mewes 
   J. Chem. Phys. 154, 064103 (2021). DOI: 10.1063/5.0040021

----- AuxJ basis set information -----
Your calculation utilizes the auxiliary basis: def2/J
   F. Weigend, Phys. Chem. Chem. Phys. 8, 1057 (2006).

================================================================================
                                        WARNINGS
                       Please study these warnings very carefully!
================================================================================

Using LibXC functional ID 497 : Re-regularized SCAN exchange by Furness et al
[ 1]  J. W. Furness, A. D. Kaplan, J. Ning, J. P. Perdew, and J. Sun.,  J. Phys. Chem. Lett. 11, 8208-8215 (2020)
[ 2]  J. W. Furness, A. D. Kaplan, J. Ning, J. P. Perdew, and J. Sun.,  J. Phys. Chem. Lett. 11, 9248-9248 (2020)
Using LibXC functional ID 498 : Re-regularized SCAN correlation by Furness et al
[ 1]  J. W. Furness, A. D. Kaplan, J. Ning, J. P. Perdew, and J. Sun.,  J. Phys. Chem. Lett. 11, 8208-8215 (2020)
[ 2]  J. W. Furness, A. D. Kaplan, J. Ning, J. P. Perdew, and J. Sun.,  J. Phys. Chem. Lett. 11, 9248-9248 (2020)
Using LibXC functional ID 497 : Re-regularized SCAN exchange by Furness et al
[ 1]  J. W. Furness, A. D. Kaplan, J. Ning, J. P. Perdew, and J. Sun.,  J. Phys. Chem. Lett. 11, 8208-8215 (2020)
[ 2]  J. W. Furness, A. D. Kaplan, J. Ning, J. P. Perdew, and J. Sun.,  J. Phys. Chem. Lett. 11, 9248-9248 (2020)
Using LibXC functional ID 498 : Re-regularized SCAN correlation by Furness et al
[ 1]  J. W. Furness, A. D. Kaplan, J. Ning, J. P. Perdew, and J. Sun.,  J. Phys. Chem. Lett. 11, 8208-8215 (2020)
[ 2]  J. W. Furness, A. D. Kaplan, J. Ning, J. P. Perdew, and J. Sun.,  J. Phys. Chem. Lett. 11, 9248-9248 (2020)

================================================================================
                                       INPUT FILE
================================================================================
NAME = sp_gas.inp
|  1> ! r2scan-3c def2/J RI DEFGRID2 scfconv6 printgap
|  2> %output
|  3>     printlevel normal
|  4> end
|  5> * xyz 0 1
|  6> C 0.7366628834 -1.1515e-06 0.0122350529
|  7> N -0.7172776033 -3.8676e-06 -0.0714104493
|  8> H 1.1151303269 0.8832981283 -0.5002101817
|  9> H 1.1151086192 -0.8833605941 -0.5001348534
| 10> H 1.1291022359 7.07836e-05 1.0388769298
| 11> H -1.0849811687 -0.817042858 0.4040496882
| 12> H -1.0849734666 0.8171020074 0.4039691495
| 13> *
| 14> 
| 15>                          ****END OF INPUT****
================================================================================

                       ****************************
                       * Single Point Calculation *
                       ****************************

---------------------------------
CARTESIAN COORDINATES (ANGSTROEM)
---------------------------------
  C      0.736663   -0.000001    0.012235
  N     -0.717278   -0.000004   -0.071410
  H      1.115130    0.883298   -0.500210
  H      1.115109   -0.883361   -0.500135
  H      1.129102    0.000071    1.038877
  H     -1.084981   -0.817043    0.404050
  H     -1.084973    0.817102    0.403969

----------------------------
CARTESIAN COORDINATES (A.U.)
----------------------------
  NO LB      ZA    FRAG     MASS         X           Y           Z
   0 C     6.0000    0    12.011    1.392091   -0.000002    0.023121
   1 N     7.0000    0    14.007   -1.355458   -0.000007   -0.134946
   2 H     1.0000    0     1.008    2.107291    1.669192   -0.945260
   3 H     1.0000    0     1.008    2.107250   -1.669310   -0.945118
   4 H     1.0000    0     1.008    2.133694    0.000134    1.963193
   5 H     1.0000    0     1.008   -2.050317   -1.543987    0.763543
   6 H     1.0000    0     1.008   -2.050303    1.544099    0.763391

--------------------------------
INTERNAL COORDINATES (ANGSTROEM)
--------------------------------
 C      0   0   0     0.000000000000     0.00000000     0.00000000
 N      1   0   0     1.456344570804     0.00000000     0.00000000
 H      1   2   0     1.089061679589   108.65804810     0.00000000
 H      1   2   3     1.089067491323   108.65679874   242.24185213
 H      1   2   3     1.099091531207   114.21223220   121.11956151
 H      2   1   3     1.014308121920   109.57234058   180.12654715
 H      2   1   3     1.014321458810   109.57170635   297.63246582

---------------------------
INTERNAL COORDINATES (A.U.)
---------------------------
 C      0   0   0     0.000000000000     0.00000000     0.00000000
 N      1   0   0     2.752092395443     0.00000000     0.00000000
 H      1   2   0     2.058028317371   108.65804810     0.00000000
 H      1   2   3     2.058039299958   108.65679874   242.24185213
 H      1   2   3     2.076981990093   114.21223220   121.11956151
 H      2   1   3     1.916764565841   109.57234058   180.12654715
 H      2   1   3     1.916789768911   109.57170635   297.63246582

---------------------
BASIS SET INFORMATION
---------------------
There are 3 groups of distinct atoms

 Group   1 Type C   : 11s6p1d contracted to 5s3p1d pattern {62111/411/1}
 Group   2 Type N   : 11s6p2d contracted to 5s3p2d pattern {62111/411/11}
 Group   3 Type H   : 4s1p contracted to 2s1p pattern {31/1}

Atom   0C    basis set group =>   1
Atom   1N    basis set group =>   2
Atom   2H    basis set group =>   3
Atom   3H    basis set group =>   3
Atom   4H    basis set group =>   3
Atom   5H    basis set group =>   3
Atom   6H    basis set group =>   3
---------------------------------
AUXILIARY/J BASIS SET INFORMATION
---------------------------------
There are 3 groups of distinct atoms

 Group   1 Type C   : 12s5p4d2f1g contracted to 6s4p3d1f1g pattern {711111/2111/211/2/1}
 Group   2 Type N   : 12s5p4d2f1g contracted to 6s4p3d1f1g pattern {711111/2111/211/2/1}
 Group   3 Type H   : 5s2p1d contracted to 3s1p1d pattern {311/2/1}

Atom   0C    basis set group =>   1
Atom   1N    basis set group =>   2
Atom   2H    basis set group =>   3
Atom   3H    basis set group =>   3
Atom   4H    basis set group =>   3
Atom   5H    basis set group =>   3
Atom   6H    basis set group =>   3

Checking for AutoStart:
The File: sp_gas.gbw exists
Trying to determine its content:
     ... Fine, the file contains calculation information
     ... Fine, the calculation information was read
     ... Fine, the file contains a basis set
     ... Fine, the basis set was read
     ... Fine, the file contains a geometry
     ... Fine, the geometry was read
     ... Fine, the file contains a set of orbitals
     ... Fine, the orbitals can be read
     => possible old guess file was deleted
     => GBW file was renamed to GES file
     => GES file is set as startup file
     => Guess is set to MORead
     ... now leaving AutoStart

------------------------------------------------------------------------------
                             ORCA STARTUP CALCULATIONS
                           -- RI-GTO INTEGRALS CHOSEN --
------------------------------------------------------------------------------
------------------------------------------------------------------------------
                   ___                                                        
                  /   \      - P O W E R E D   B Y -                         
                 /     \                                                     
                 |  |  |   _    _      __       _____    __    __             
                 |  |  |  | |  | |    /  \     |  _  \  |  |  /  |          
                  \  \/   | |  | |   /    \    | | | |  |  | /  /          
                 / \  \   | |__| |  /  /\  \   | |_| |  |  |/  /          
                |  |  |   |  __  | /  /__\  \  |    /   |      \           
                |  |  |   | |  | | |   __   |  |    \   |  |\   \          
                \     /   | |  | | |  |  |  |  | |\  \  |  | \   \       
                 \___/    |_|  |_| |__|  |__|  |_| \__\ |__|  \__/        
                                                                              
                      - O R C A' S   B I G   F R I E N D -                    
                                      &                                       
                       - I N T E G R A L  F E E D E R -                       
                                                                              
 v1 FN, 2020, v2 2021, v3 2022-2024                                           
------------------------------------------------------------------------------


----------------------
SHARK INTEGRAL PACKAGE
----------------------

Number of atoms                             ...      7
Number of basis functions                   ...     68
Number of shells                            ...     34
Maximum angular momentum                    ...      2
Integral batch strategy                     ... SHARK/LIBINT Hybrid
RI-J (if used) integral strategy            ... SPLIT-RIJ (Revised 2003 algorithm where possible)
Printlevel                                  ...      1
Contraction scheme used                     ... SEGMENTED contraction
Prescreening option                         ... SCHWARTZ
   Thresh                                   ... 1.000e-10
   Tcut                                     ... 1.000e-11
   Tpresel                                  ... 1.000e-11 
Coulomb Range Separation                    ... NOT USED
Exchange Range Separation                   ... NOT USED
Multipole approximations                    ... NOT USED
Finite Nucleus Model                        ... NOT USED
CABS basis                                  ... NOT available
Auxiliary Coulomb fitting basis             ... AVAILABLE
   # of basis functions in Aux-J            ...    153
   # of shells in Aux-J                     ...     55
   Maximum angular momentum in Aux-J        ...      4
Auxiliary J/K fitting basis                 ... NOT available
Auxiliary Correlation fitting basis         ... NOT available
Auxiliary 'external' fitting basis          ... NOT available

Checking pre-screening integrals            ... done (  0.0 sec) Dimension = 34
Check shell pair data                       ... done (  0.0 sec)
Shell pair information
Shell pair cut-off parameter TPreSel        ...   1.0e-11
Total number of shell pairs                 ...       595
Shell pairs after pre-screening             ...       594
Total number of primitive shell pairs       ...      2012
Primitive shell pairs kept                  ...      1756
          la=0 lb=0:    209 shell pairs
          la=1 lb=0:    220 shell pairs
          la=1 lb=1:     66 shell pairs
          la=2 lb=0:     60 shell pairs
          la=2 lb=1:     33 shell pairs
          la=2 lb=2:      6 shell pairs

Calculating one electron integrals          ... done (  0.0 sec)
Calculating RI/J V-Matrix + Cholesky decomp.... done (  0.0 sec)
Calculating Nuclear repulsion               ... done (  0.0 sec) ENN=     42.148292961040 Eh

Diagonalization of the overlap matrix:
Smallest eigenvalue                        ... 1.597e-03
Time for diagonalization                   ...    0.001 sec
Threshold for overlap eigenvalues          ... 1.000e-07
Number of eigenvalues below threshold      ... 0
Time for construction of square roots      ...    0.010 sec
Total time needed                          ...    0.018 sec

-------------------
DFT GRID GENERATION
-------------------

General Integration Accuracy     IntAcc      ... 4.388
Radial Grid Type                 RadialGrid  ... OptM3 with GC (2021)
Angular Grid (max. ang.)         AngularGrid ... 4 (Lebedev-302)
Angular grid pruning method      GridPruning ... 4 (adaptive)
Weight generation scheme         WeightScheme... mBecke (2022)
Basis function cutoff            BFCut       ... 1.0000e-10
Integration weight cutoff        WCut        ... 1.0000e-14
Partially contracted basis set               ... off
Rotationally invariant grid construction     ... off
Angular grids for H and He will be reduced by one unit

Total number of grid points                  ...    28514
Total number of batches                      ...      450
Average number of points per batch           ...       63
Average number of grid points per atom       ...     4073
Initializing property integral containers    ... done (  0.0 sec)

SHARK setup successfully completed in   0.4 seconds

Maximum memory used throughout the entire STARTUP-calculation: 12.7 MB
-------------------------------------------------------------------------------
                                 ORCA GUESS
                   Start orbitals & Density for SCF / CASSCF
-------------------------------------------------------------------------------

------------
SCF SETTINGS
------------
Hamiltonian:
 Density Functional     Method          .... DFT(GTOs)
  Functional kind                       .... Exchange
  Functional name                       .... Re-regularized SCAN exchange by Furness et al
  Functional family                     .... MGGA
  Functional refs                              
    [ 0] J. W. Furness, A. D. Kaplan, J. Ning, J. P. Perdew, and J. Sun.,  J. Phys. Chem. Lett. 11, 8208-8215 (2020), doi: 10.1021/acs.jpclett.0c02405
    [ 1] J. W. Furness, A. D. Kaplan, J. Ning, J. P. Perdew, and J. Sun.,  J. Phys. Chem. Lett. 11, 9248-9248 (2020), doi: 10.1021/acs.jpclett.0c03077
  Functional external parameters        .... 6
    Parameter  0 _c1        =  6.670000e-01 : c1 parameter        
    Parameter  1 _c2        =  8.000000e-01 : c2 parameter        
    Parameter  2 _d         =  1.240000e+00 : d parameter         
    Parameter  3 _k1        =  6.500000e-02 : k1 parameter        
    Parameter  4 _eta       =  1.000000e-03 : eta parameter       
    Parameter  5 _dp2       =  3.610000e-01 : dp2 parameter       
  Functional kind                       .... Correlation
  Functional name                       .... Re-regularized SCAN correlation by Furness et al
  Functional family                     .... MGGA
  Functional refs                              
    [ 0] J. W. Furness, A. D. Kaplan, J. Ning, J. P. Perdew, and J. Sun.,  J. Phys. Chem. Lett. 11, 8208-8215 (2020), doi: 10.1021/acs.jpclett.0c02405
    [ 1] J. W. Furness, A. D. Kaplan, J. Ning, J. P. Perdew, and J. Sun.,  J. Phys. Chem. Lett. 11, 9248-9248 (2020), doi: 10.1021/acs.jpclett.0c03077
  Functional external parameters        .... 1
    Parameter  0 _eta       =  1.000000e-03 : Regularization parameter
 Gradients option       PostSCFGGA      .... off
 RI-approximation to the Coulomb term is turned on
   Number of AuxJ basis functions       .... 153


General Settings:
 Integral files         IntName         .... sp_gas
 Hartree-Fock type      HFTyp           .... RHF
 Total Charge           Charge          ....    0
 Multiplicity           Mult            ....    1
 Number of Electrons    NEL             ....   18
 Basis Dimension        Dim             ....   68
 Nuclear Repulsion      ENuc            ....     42.1482929610 Eh

Convergence Acceleration:
 AO-DIIS                CNVDIIS         .... on
   Start iteration      DIISMaxIt       ....    12
   Startup error        DIISStart       ....  0.200000
   # of expansion vecs  DIISMaxEq       ....     5
   Bias factor          DIISBfac        ....   1.050
   Max. coefficient     DIISMaxC        ....  10.000
 MO-DIIS                CNVKDIIS        .... off
 Trust-Rad. Augm. Hess. CNVTRAH         .... auto
   Auto Start mean grad. ratio tolernc. ....  1.125000
   Auto Start start iteration           ....     1
   Auto Start num. interpolation iter.  ....    10
   Max. Number of Micro iterations      ....    24
   Max. Number of Macro iterations      .... Maxiter - #DIIS iter
   Number of Davidson start vectors     ....     2
   Converg. threshold    (grad. norm)   ....   3.330e-04
   Grad. Scal. Fac. for Micro threshold ....   0.100
   Minimum threshold for Micro iter.    ....   1.000e-02
   NR start threshold (gradient norm)   ....   1.000e-04
   Initial trust radius                 ....   0.400
   Minimum AH scaling param. (alpha)    ....   1.000
   Maximum AH scaling param. (alpha)    .... 1000.000
   Quad. conv. algorithm                .... NR
   White noise on init. David. guess    .... on
   Maximum white noise                  ....   0.010
   Pseudo random numbers                .... off
   Inactive MOs                         .... canonical
   Orbital update algorithm             .... Taylor
   Preconditioner                       .... Diag
   Full preconditioner red. dimension   ....   250
   COSX micro iterations for RIJONX calc.... off
 SOSCF                  CNVSOSCF        .... on
   Start iteration      SOSCFMaxIt      ....   150
   Startup grad/error   SOSCFStart      ....  0.003300
   Hessian update       SOSCFHessUp     .... L-BFGS
 Level Shifting         CNVShift        .... on
   Level shift para.    LevelShift      ....    0.2500
   Turn off err/grad.   ShiftErr        ....    0.0010
 Zerner damping         CNVZerner       .... off
 Static damping         CNVDamp         .... on
   Fraction old density DampFac         ....    0.7000
   Max. Damping (<1)    DampMax         ....    0.9800
   Min. Damping (>=0)   DampMin         ....    0.0000
   Turn off err/grad.   DampErr         ....    0.1000

SCF Procedure:
 Maximum # iterations   MaxIter         ....   125
 SCF integral mode      SCFMode         .... Direct
   Integral package                     .... SHARK and LIBINT hybrid scheme
 Reset frequency        DirectResetFreq ....    20
 Integral Threshold     Thresh          ....  1.000e-10 Eh
 Primitive CutOff       TCut            ....  1.000e-11 Eh

Convergence Tolerance:
 Convergence Check Mode ConvCheckMode   .... Total+1el-Energy
 Convergence forced     ConvForced      .... 0
 Energy Change          TolE            ....  1.000e-06 Eh
 1-El. energy change                    ....  1.000e-03 Eh
 Orbital Gradient       TolG            ....  3.330e-04
 Orbital Rotation angle TolX            ....  3.330e-04
 DIIS Error             TolErr          ....  1.000e-06

---------------------
INITIAL GUESS: MOREAD
---------------------
Guess MOs are being read from file: sp_gas.ges
Input Geometry matches current geometry (good)
Atom 0: N(Shells)= 9 and 6 - projection required
Input basis set needs projection
NBasis(read)= 38
NBasis(calc)= 68
Basis set overlap was calculated
Using GuessMode=FMatrix for the initial guess
C*T matrix was formed
Effective Fockian was calculated
Effective Fockian was diagonalized
Initial density was built
                      ------------------
                      INITIAL GUESS DONE (   0.0 sec)
                      ------------------
             **** ENERGY FILE WAS UPDATED (sp_gas.en.tmp) ****
Finished Guess after   0.2 sec
Maximum memory used throughout the entire GUESS-calculation: 6.4 MB

-------------------------------------------------------------------------------------------
                                      ORCA LEAN-SCF
                              memory conserving SCF solver
-------------------------------------------------------------------------------------------

----------------------------------------D-I-I-S--------------------------------------------
Iteration    Energy (Eh)           Delta-E    RMSDP     MaxDP     DIISErr   Damp  Time(sec)
-------------------------------------------------------------------------------------------
               ***  Starting incremental Fock matrix formation  ***
    1    -95.7617993428825400     0.00e+00  2.97e-03  5.78e-02  4.45e-01  0.700   0.5
    2    -95.7815049814600172    -1.97e-02  2.46e-03  4.31e-02  3.13e-01  0.700   0.5
    3    -95.7955737262652747    -1.41e-02  1.83e-03  3.09e-02  2.19e-01  0.700   0.5
                               ***Turning on AO-DIIS***
    4    -95.8054789632799384    -9.91e-03  1.38e-03  2.30e-02  1.53e-01  0.700   0.5
    5    -95.8124417436138742    -6.96e-03  1.00e-03  1.64e-02  1.07e-01  0.700   0.5
    6    -95.8173344556838344    -4.89e-03  7.15e-04  1.16e-02  7.50e-02  0.700   0.5
    7    -95.8207697637694480    -3.44e-03  1.69e-03  2.71e-02  5.25e-02  0.000   0.5
                              *** Initializing SOSCF ***
---------------------------------------S-O-S-C-F--------------------------------------
Iteration    Energy (Eh)           Delta-E    RMSDP     MaxDP     MaxGrad    Time(sec)
--------------------------------------------------------------------------------------
    8    -95.8288181621546187    -8.05e-03  2.20e-05  2.63e-04  2.17e-04     0.5
               *** Restarting incremental Fock matrix formation ***
    9    -95.8288182658052392    -1.04e-07  1.64e-05  2.01e-04  4.26e-05     0.5
                  *** Gradient check signals convergence ***

               *****************************************************
               *                     SUCCESS                       *
               *           SCF CONVERGED AFTER   9 CYCLES          *
               *****************************************************

             **** ENERGY FILE WAS UPDATED (sp_gas.en.tmp) ****

----------------
TOTAL SCF ENERGY
----------------

Total Energy       :        -95.82881826580524 Eh           -2607.63471 eV

Components:
Nuclear Repulsion  :         42.14829296104040 Eh            1146.91336 eV
Electronic Energy  :       -137.97711122684564 Eh           -3754.54807 eV
One Electron Energy:       -211.88252558153951 Eh           -5765.61664 eV
Two Electron Energy:         73.90541435469387 Eh            2011.06857 eV

Virial components:
Potential Energy   :       -191.22632088578268 Eh           -5203.53273 eV
Kinetic Energy     :         95.39750261997746 Eh            2595.89802 eV
Virial Ratio       :          2.00452124672012

DFT components:
N(Alpha)           :        9.000004958947 electrons
N(Beta)            :        9.000004958947 electrons
N(Total)           :       18.000009917894 electrons
E(X)               :      -13.614682627345 Eh       
E(C)               :       -0.548822313189 Eh       
E(XC)              :      -14.163504940534 Eh       

---------------
SCF CONVERGENCE
---------------

  Last Energy change         ...    1.0365e-07  Tolerance :   1.0000e-06
  Last MAX-Density change    ...    2.0114e-04  Tolerance :   1.0000e-05
  Last RMS-Density change    ...    1.6434e-05  Tolerance :   1.0000e-06
  Last DIIS Error            ...    2.1692e-04  Tolerance :   1.0000e-06
  Last Orbital Gradient      ...    4.2576e-05  Tolerance :   3.3300e-04
  Last Orbital Rotation      ...    7.5193e-05  Tolerance :   3.3300e-04


----------------
ORBITAL ENERGIES
----------------

  NO   OCC          E(Eh)            E(eV) 
   0   2.0000     -14.135255      -384.6398 
   1   2.0000     -10.042814      -273.2789 
   2   2.0000      -0.840263       -22.8647 
   3   2.0000      -0.622565       -16.9409 
   4   2.0000      -0.457179       -12.4405 
   5   2.0000      -0.405524       -11.0349 
   6   2.0000      -0.368376       -10.0240 
   7   2.0000      -0.334652        -9.1063 
   8   2.0000      -0.204208        -5.5568 
   9   0.0000       0.072452         1.9715 
  10   0.0000       0.127416         3.4672 
  11   0.0000       0.147786         4.0215 
  12   0.0000       0.186691         5.0801 
  13   0.0000       0.195842         5.3291 
  14   0.0000       0.204767         5.5720 
  15   0.0000       0.230426         6.2702 
  16   0.0000       0.249361         6.7855 
  17   0.0000       0.285130         7.7588 
  18   0.0000       0.360658         9.8140 
  19   0.0000       0.387990        10.5577 
*Only the first 10 virtual orbitals were printed.

                    ********************************
                    * MULLIKEN POPULATION ANALYSIS *
                    ********************************

-----------------------
MULLIKEN ATOMIC CHARGES
-----------------------
   0 C :   -0.318053
   1 N :   -0.565572
   2 H :    0.140932
   3 H :    0.140933
   4 H :    0.119152
   5 H :    0.241304
   6 H :    0.241306
Sum of atomic charges:   -0.0000000

--------------------------------
MULLIKEN REDUCED ORBITAL CHARGES
--------------------------------
  0 C s       :     3.292476  s :     3.292476
      pz      :     1.076931  p :     2.985807
      px      :     0.805552
      py      :     1.103324
      dz2     :     0.006220  d :     0.039771
      dxz     :     0.012668
      dyz     :     0.004079
      dx2y2   :     0.009768
      dxy     :     0.007036

  1 N s       :     3.560326  s :     3.560326
      pz      :     1.673683  p :     3.973945
      px      :     1.128329
      py      :     1.171934
      dz2     :     0.001861  d :     0.031301
      dxz     :     0.006823
      dyz     :     0.012922
      dx2y2   :     0.004429
      dxy     :     0.005266

  2 H s       :     0.841234  s :     0.841234
      pz      :     0.005462  p :     0.017834
      px      :     0.003885
      py      :     0.008487

  3 H s       :     0.841233  s :     0.841233
      pz      :     0.005461  p :     0.017834
      px      :     0.003885
      py      :     0.008487

  4 H s       :     0.863324  s :     0.863324
      pz      :     0.009888  p :     0.017524
      px      :     0.004057
      py      :     0.003579

  5 H s       :     0.726758  s :     0.726758
      pz      :     0.011473  p :     0.031939
      px      :     0.007037
      py      :     0.013429

  6 H s       :     0.726757  s :     0.726757
      pz      :     0.011471  p :     0.031937
      px      :     0.007037
      py      :     0.013429


------------------------
MULLIKEN OVERLAP CHARGES
------------------------
B(  0-C ,  1-N ) :   0.3989 B(  0-C ,  2-H ) :   0.8529 B(  0-C ,  3-H ) :   0.8529 
B(  0-C ,  4-H ) :   0.8084 B(  1-N ,  2-H ) :  -0.1162 B(  1-N ,  3-H ) :  -0.1162 
B(  1-N ,  4-H ) :  -0.0856 B(  1-N ,  5-H ) :   0.6810 B(  1-N ,  6-H ) :   0.6810 
B(  2-H ,  4-H ) :  -0.0674 B(  3-H ,  4-H ) :  -0.0674 


                     *******************************
                     * LOEWDIN POPULATION ANALYSIS *
                     *******************************

----------------------
LOEWDIN ATOMIC CHARGES
----------------------
   0 C :   -0.170476
   1 N :   -0.759845
   2 H :    0.164859
   3 H :    0.164862
   4 H :    0.138211
   5 H :    0.231191
   6 H :    0.231196

-------------------------------
LOEWDIN REDUCED ORBITAL CHARGES
-------------------------------
  0 C s       :     2.912188  s :     2.912188
      pz      :     1.104428  p :     3.163438
      px      :     0.948304
      py      :     1.110707
      dz2     :     0.015112  d :     0.094850
      dxz     :     0.029404
      dyz     :     0.010098
      dx2y2   :     0.023203
      dxy     :     0.017033

  1 N s       :     3.257986  s :     3.257986
      pz      :     1.691654  p :     4.199507
      px      :     1.256345
      py      :     1.251507
      dz2     :     0.021175  d :     0.302351
      dxz     :     0.079037
      dyz     :     0.033514
      dx2y2   :     0.065342
      dxy     :     0.103283

  2 H s       :     0.795159  s :     0.795159
      pz      :     0.012330  p :     0.039982
      px      :     0.007757
      py      :     0.019895

  3 H s       :     0.795156  s :     0.795156
      pz      :     0.012329  p :     0.039981
      px      :     0.007756
      py      :     0.019896

  4 H s       :     0.821171  s :     0.821171
      pz      :     0.023718  p :     0.040618
      px      :     0.009081
      py      :     0.007819

  5 H s       :     0.683671  s :     0.683671
      pz      :     0.031879  p :     0.085138
      px      :     0.018551
      py      :     0.034709

  6 H s       :     0.683669  s :     0.683669
      pz      :     0.031875  p :     0.085134
      px      :     0.018549
      py      :     0.034710


---------------------------------
LOEWDIN BOND ORDERS (THRESH 0.050000)
---------------------------------
B(  0-C ,  1-N ) :   1.4598 B(  0-C ,  2-H ) :   0.8727 B(  0-C ,  3-H ) :   0.8727 
B(  0-C ,  4-H ) :   0.8794 B(  1-N ,  2-H ) :   0.1014 B(  1-N ,  3-H ) :   0.1014 
B(  1-N ,  4-H ) :   0.1141 B(  1-N ,  5-H ) :   0.9503 B(  1-N ,  6-H ) :   0.9503 


------------------------------------------
LOEWDIN REDUCED ORBITAL POPULATIONS PER MO
-------------------------------------------
THRESHOLD FOR PRINTING IS 0.1%%
                      0         1         2         3         4         5   
                 -14.13526 -10.04281  -0.84026  -0.62257  -0.45718  -0.40552
                   2.00000   2.00000   2.00000   2.00000   2.00000   2.00000
                  --------  --------  --------  --------  --------  --------
 0 C  s               0.0      99.5      14.9      30.0       0.0       0.7
 0 C  pz              0.0       0.0       0.0       0.1       0.0      21.7
 0 C  px              0.1       0.0       7.0       5.5       0.0      19.1
 0 C  py              0.0       0.0       0.0       0.0      19.0       0.0
 0 C  dz2             0.0       0.0       0.1       0.0       0.0       0.4
 0 C  dx2y2           0.0       0.0       0.4       0.1       0.0       0.2
 1 N  s              99.8       0.0      48.6       6.7       0.0       1.0
 1 N  pz              0.0       0.0       1.3       1.3       0.0      12.2
 1 N  px              0.0       0.1       1.3      14.9       0.0      20.3
 1 N  py              0.0       0.0       0.0       0.0      49.0       0.0
 1 N  dz2             0.0       0.1       0.2       0.6       0.0       0.0
 1 N  dxz             0.0       0.0       0.0       0.1       0.0       0.4
 1 N  dyz             0.0       0.0       0.0       0.0       0.9       0.0
 1 N  dx2y2           0.0       0.2       0.2       2.5       0.0       0.2
 2 H  s               0.0       0.0       1.6       9.5       3.6       0.0
 2 H  pz              0.0       0.0       0.0       0.2       0.1       0.1
 2 H  px              0.0       0.0       0.0       0.0       0.1       0.2
 2 H  py              0.0       0.0       0.1       0.5       0.0       0.0
 3 H  s               0.0       0.0       1.6       9.5       3.6       0.0
 3 H  pz              0.0       0.0       0.0       0.2       0.1       0.1
 3 H  px              0.0       0.0       0.0       0.0       0.1       0.2
 3 H  py              0.0       0.0       0.1       0.5       0.0       0.0
 4 H  s               0.0       0.0       1.5       8.5       0.0      16.7
 4 H  pz              0.0       0.0       0.1       0.6       0.0       0.4
 5 H  s               0.0       0.0       9.2       3.7      11.1       2.8
 5 H  pz              0.0       0.0       0.2       0.1       0.3       0.0
 5 H  px              0.0       0.0       0.2       0.0       0.2       0.1
 5 H  py              0.0       0.0       0.9       0.5       0.1       0.2
 6 H  s               0.0       0.0       9.2       3.7      11.1       2.8
 6 H  pz              0.0       0.0       0.2       0.1       0.3       0.0
 6 H  px              0.0       0.0       0.2       0.0       0.2       0.1
 6 H  py              0.0       0.0       0.9       0.5       0.1       0.2

                      6         7         8         9        10        11   
                  -0.36838  -0.33465  -0.20421   0.07245   0.12742   0.14779
                   2.00000   2.00000   2.00000   0.00000   0.00000   0.00000
                  --------  --------  --------  --------  --------  --------
 0 C  s               0.4       0.0       0.2      19.1      31.9       0.0
 0 C  pz             30.1       0.0       3.3       1.2       0.1       0.0
 0 C  px             15.0       0.0       0.7      20.5      32.4       0.0
 0 C  py              0.0      36.5       0.0       0.0       0.0      38.6
 0 C  dz2             0.0       0.0       0.2       0.4       0.2       0.0
 0 C  dxz             0.1       0.0       1.3       0.0       0.0       0.0
 0 C  dyz             0.0       0.4       0.0       0.0       0.0       0.1
 0 C  dx2y2           0.5       0.0       0.0       1.6       0.8       0.0
 0 C  dxy             0.0       0.8       0.0       0.0       0.0       0.9
 1 N  s               0.5       0.0       6.3      15.8       3.5       0.0
 1 N  pz              2.2       0.0      67.5       2.4       0.2       0.0
 1 N  px             21.1       0.0       5.1       1.0       3.9       0.0
 1 N  py              0.0      13.5       0.0       0.0       0.0      15.6
 1 N  dz2             0.2       0.0       0.0       0.1       2.4       0.0
 1 N  dxz             2.4       0.0       1.0       0.3       0.0       0.0
 1 N  dyz             0.0       0.8       0.0       0.0       0.0      12.7
 1 N  dx2y2           0.1       0.0       0.0       4.5       5.0       0.0
 1 N  dxy             0.0       5.1       0.0       0.0       0.0       5.1
 2 H  s               8.2      15.6       1.3       2.2       3.4       0.4
 2 H  pz              0.0       0.2       0.0       0.2       0.4       0.0
 2 H  px              0.0       0.0       0.0       0.3       0.8       0.3
 2 H  py              0.3       0.0       0.0       0.7       0.9       0.3
 3 H  s               8.2      15.6       1.3       2.2       3.4       0.4
 3 H  pz              0.0       0.2       0.0       0.2       0.4       0.0
 3 H  px              0.0       0.0       0.0       0.3       0.8       0.3
 3 H  py              0.3       0.0       0.0       0.7       0.9       0.3
 4 H  s               6.6       0.0       7.7       1.9       4.4       0.0
 4 H  pz              0.0       0.0       0.0       1.0       1.6       0.0
 4 H  px              0.3       0.0       0.0       0.3       1.0       0.0
 4 H  py              0.0       0.3       0.0       0.0       0.0       0.3
 5 H  s               1.4       5.2       0.8       8.4       0.3       9.4
 5 H  pz              0.1       0.1       0.9       0.4       0.0       1.1
 5 H  px              0.2       0.1       0.2       0.3       0.5       0.7
 5 H  py              0.1       0.0       0.1       2.5       0.1       1.2
 6 H  s               1.4       5.2       0.8       8.4       0.3       9.4
 6 H  pz              0.1       0.1       0.9       0.4       0.0       1.1
 6 H  px              0.2       0.1       0.2       0.3       0.5       0.7
 6 H  py              0.1       0.0       0.1       2.5       0.1       1.2

                     12        13        14        15        16        17   
                   0.18669   0.19584   0.20477   0.23043   0.24936   0.28513
                   0.00000   0.00000   0.00000   0.00000   0.00000   0.00000
                  --------  --------  --------  --------  --------  --------
 0 C  s               2.2       0.0       0.6       1.6       0.0       1.7
 0 C  pz             47.2       0.0      17.9      39.9       0.0       0.9
 0 C  px              6.1       0.0       4.5       6.8       0.0      36.6
 0 C  py              0.0      19.6       0.0       0.0      52.2       0.0
 0 C  dz2             0.0       0.0       4.5       0.1       0.0       0.0
 0 C  dxz             0.9       0.0       0.3       0.0       0.0       0.0
 0 C  dyz             0.0       4.9       0.0       0.0       0.5       0.0
 0 C  dx2y2           1.2       0.0       0.1       2.3       0.0       0.2
 0 C  dxy             0.0       1.3       0.0       0.0       0.3       0.0
 1 N  s               0.0       0.0       0.1       2.1       0.0       4.1
 1 N  pz              3.0       0.0       2.9       0.3       0.0       0.3
 1 N  px              4.3       0.0       1.4      11.3       0.0      22.0
 1 N  py              0.0       0.3       0.0       0.0       6.4       0.0
 1 N  dz2             0.1       0.0       8.0       0.3       0.0       2.1
 1 N  dxz             4.5       0.0       2.9       1.2       0.0       0.0
 1 N  dyz             0.0       7.3       0.0       0.0       8.2       0.0
 1 N  dx2y2           0.6       0.0       7.6       1.2       0.0      25.0
 1 N  dxy             0.0       5.5       0.0       0.0       5.2       0.0
 2 H  s               5.7      22.9       1.7       4.5       2.3       0.1
 2 H  pz              0.4       2.9       1.4       0.1       0.0       0.0
 2 H  px              0.0       1.0       0.4       0.2       0.1       0.0
 2 H  py              2.1       1.5       1.0       1.3       0.6       0.1
 3 H  s               5.7      22.9       1.7       4.5       2.3       0.1
 3 H  pz              0.4       2.9       1.4       0.1       0.0       0.0
 3 H  px              0.0       1.0       0.4       0.2       0.1       0.0
 3 H  py              2.1       1.5       1.0       1.3       0.6       0.1
 4 H  s               2.7       0.0      29.4       1.1       0.0       1.2
 4 H  pz              0.7       0.0       5.5       1.6       0.0       0.0
 4 H  px              1.8       0.0       0.2       0.1       0.0       0.0
 4 H  py              0.0       3.1       0.0       0.0       0.3       0.0
 5 H  s               3.2       0.5       1.6       6.8       7.8       1.0
 5 H  pz              0.2       0.0       0.0       0.3       1.0       0.0
 5 H  px              0.0       0.1       0.0       0.1       0.9       1.6
 5 H  py              0.7       0.0       0.9       1.9       0.7       0.1
 6 H  s               3.2       0.5       1.6       6.8       7.8       1.0
 6 H  pz              0.2       0.0       0.0       0.3       1.0       0.0
 6 H  px              0.0       0.1       0.0       0.1       0.9       1.6
 6 H  py              0.7       0.0       0.9       1.9       0.7       0.1

                     18        19        20        21        22        23   
                   0.36066   0.38799   0.39230   0.42721   0.52230   0.54557
                   0.00000   0.00000   0.00000   0.00000   0.00000   0.00000
                  --------  --------  --------  --------  --------  --------
 0 C  s              12.2       9.5       0.0      13.9       0.0      14.4
 0 C  pz              1.7       2.5       0.0       0.5       0.0       1.0
 0 C  px             10.0       0.5       0.0       8.9       0.0       5.1
 0 C  py              0.0       0.0       0.2       0.0       6.7       0.0
 0 C  dz2             0.3       0.1       0.0       0.7       0.0       0.5
 0 C  dxz             0.5       0.0       0.0       0.0       0.0       1.9
 0 C  dyz             0.0       0.0       0.1       0.0       0.7       0.0
 0 C  dx2y2           0.7       0.0       0.0       0.5       0.0       0.5
 0 C  dxy             0.0       0.0       0.6       0.0       3.2       0.0
 1 N  s               1.6       1.7       0.0       1.4       0.0      22.6
 1 N  pz              4.2      58.1       0.0       3.7       0.0       0.2
 1 N  px              3.4       1.6       0.0      47.8       0.0       2.2
 1 N  py              0.0       0.0      55.4       0.0       2.6       0.0
 1 N  dz2            36.0       2.9       0.0       0.2       0.0      13.0
 1 N  dxz             2.2       9.4       0.0       0.0       0.0      25.4
 1 N  dyz             0.0       0.0      29.3       0.0      10.8       0.0
 1 N  dx2y2           4.4       1.1       0.0       1.1       0.0       3.3
 1 N  dxy             0.0       0.0       0.1       0.0      55.9       0.0
 2 H  s               0.6       2.8       0.8       6.1       1.8       1.3
 2 H  pz              0.3       0.5       0.0       0.1       1.4       0.3
 2 H  px              0.2       0.3       1.0       0.5       0.3       0.0
 2 H  py              0.7       0.8       0.0       1.4       0.4       0.0
 3 H  s               0.6       2.8       0.8       6.1       1.8       1.3
 3 H  pz              0.3       0.5       0.0       0.1       1.4       0.3
 3 H  px              0.2       0.3       1.0       0.5       0.3       0.0
 3 H  py              0.7       0.8       0.0       1.4       0.4       0.0
 4 H  s               8.5       1.2       0.0       3.3       0.0       0.9
 4 H  pz              1.5       0.1       0.0       0.7       0.0       1.1
 4 H  px              0.6       0.3       0.0       0.7       0.0       0.2
 4 H  py              0.0       0.0       0.2       0.0       2.2       0.0
 5 H  s               2.6       0.2       3.8       0.2       0.9       0.7
 5 H  pz              0.6       0.7       0.0       0.0       1.5       0.2
 5 H  px              0.1       0.2       0.1       0.0       2.4       0.4
 5 H  py              0.8       0.0       1.3       0.0       0.3       0.9
 6 H  s               2.6       0.2       3.8       0.2       0.9       0.7
 6 H  pz              0.6       0.7       0.0       0.0       1.5       0.2
 6 H  px              0.1       0.2       0.1       0.0       2.4       0.4
 6 H  py              0.8       0.0       1.3       0.0       0.3       0.9

                     24        25        26        27        28        29   
                   0.57108   0.66265   0.66773   0.88363   1.02425   1.02801
                   0.00000   0.00000   0.00000   0.00000   0.00000   0.00000
                  --------  --------  --------  --------  --------  --------
 0 C  s               1.7       0.0       3.3      14.8       0.0       0.3
 0 C  pz              4.9       0.0       0.5       0.1       0.0      15.0
 0 C  px              1.2       0.0       1.9       6.1       0.0       0.2
 0 C  py              0.0       0.7       0.0       0.0      14.6       0.0
 0 C  dz2             0.0       0.0       0.2       0.0       0.0       7.4
 0 C  dxz             2.2       0.0       0.2       0.0       0.0       4.1
 0 C  dyz             0.0       1.9       0.0       0.0       9.1       0.0
 0 C  dx2y2           0.8       0.0       0.2       0.8       0.0       1.6
 0 C  dxy             0.0       0.1       0.0       0.0       5.0       0.0
 1 N  s               7.2       0.0      42.2      11.9       0.0       0.1
 1 N  pz             18.0       0.0       9.6       1.0       0.0       1.3
 1 N  px              2.7       0.0       1.4      21.9       0.0       0.4
 1 N  py              0.0      26.6       0.0       0.0       1.2       0.0
 1 N  dz2            15.0       0.0       7.6       6.1       0.0       0.1
 1 N  dxz            33.9       0.0       2.9       0.2       0.0       1.7
 1 N  dyz             0.0      10.5       0.0       0.0       0.4       0.0
 1 N  dx2y2           0.1       0.0       4.8      22.4       0.0       0.7
 1 N  dxy             0.0       2.4       0.0       0.0       0.7       0.0
 2 H  s               0.3       0.1       0.9       0.2      33.8       8.2
 2 H  pz              0.4       0.0       0.1       0.1       0.0       0.1
 2 H  px              0.3       0.0       0.4       0.1       0.0       0.0
 2 H  py              1.2       0.1       0.1       0.1       0.0       0.0
 3 H  s               0.3       0.1       0.9       0.2      33.7       8.3
 3 H  pz              0.4       0.0       0.1       0.1       0.0       0.1
 3 H  px              0.3       0.0       0.4       0.1       0.0       0.0
 3 H  py              1.2       0.1       0.1       0.1       0.0       0.0
 4 H  s               2.3       0.0       0.1       0.1       0.0      48.5
 4 H  pz              1.3       0.0       0.0       0.0       0.0       0.0
 4 H  px              0.2       0.0       0.0       0.0       0.0       0.0
 4 H  py              0.0       0.0       0.0       0.0       0.1       0.0
 5 H  s               0.3      28.3      10.3       6.8       0.1       0.6
 5 H  pz              0.8       0.2       0.4       0.1       0.1       0.0
 5 H  px              0.4       0.2       0.3       0.0       0.5       0.2
 5 H  py              0.5       0.0       0.0       0.0       0.0       0.1
 6 H  s               0.3      28.3      10.3       6.8       0.1       0.6
 6 H  pz              0.8       0.2       0.4       0.1       0.1       0.0
 6 H  px              0.4       0.2       0.3       0.0       0.5       0.2
 6 H  py              0.5       0.0       0.0       0.0       0.0       0.1

                     30        31        32        33        34        35   
                   1.11821   1.15414   1.20574   1.32811   1.33704   1.42028
                   0.00000   0.00000   0.00000   0.00000   0.00000   0.00000
                  --------  --------  --------  --------  --------  --------
 0 C  s              11.0      21.4       0.0       8.6       3.2       0.0
 0 C  pz              0.9       0.3       0.0       9.4      39.3       0.0
 0 C  px              1.1       2.2       0.0      42.0      11.2       0.0
 0 C  py              0.0       0.0      21.2       0.0       0.0      35.2
 0 C  dz2             0.4       1.8       0.0      11.2       6.5       0.0
 0 C  dxz             0.1       0.0       0.0       0.2       0.9       0.0
 0 C  dyz             0.0       0.0      10.9       0.0       0.0       5.6
 0 C  dx2y2           3.0       2.6       0.0       3.5      10.1       0.0
 0 C  dxy             0.0       0.0       0.0       0.0       0.0       0.1
 1 N  s               4.7       0.9       0.0       1.5       0.6       0.0
 1 N  pz              3.0       1.5       0.0       0.6       0.7       0.0
 1 N  px              4.5       2.9       0.0       2.2       0.8       0.0
 1 N  py              0.0       0.0      12.2       0.0       0.0      13.0
 1 N  dz2             0.6       0.1       0.0       0.2       0.7       0.0
 1 N  dxz             2.6       1.0       0.0       0.1       1.0       0.0
 1 N  dyz             0.0       0.0       8.9       0.0       0.0       8.1
 1 N  dx2y2           7.5       5.4       0.0       0.9       0.7       0.0
 1 N  dxy             0.0       0.0       6.0       0.0       0.0       5.9
 2 H  s               8.3      13.7       1.1       0.7       0.4       0.1
 2 H  pz              0.1       0.0       0.1       1.9       6.9       0.5
 2 H  px              0.1       0.0       2.8       2.4       2.3       0.1
 2 H  py              0.0       0.0       1.6       0.1       0.9       2.5
 3 H  s               8.3      13.7       1.1       0.7       0.4       0.1
 3 H  pz              0.1       0.0       0.1       1.9       6.9       0.5
 3 H  px              0.1       0.0       2.8       2.4       2.3       0.1
 3 H  py              0.0       0.0       1.6       0.1       0.9       2.5
 4 H  s               1.5      14.8       0.0       1.3       0.2       0.0
 4 H  pz              0.2       0.0       0.0       0.1       1.6       0.0
 4 H  px              0.5       0.9       0.0       6.6       0.1       0.0
 4 H  py              0.0       0.0       2.4       0.0       0.0      10.5
 5 H  s              19.1       8.1      12.8       0.4       0.4       5.9
 5 H  pz              0.3       0.0       0.3       0.1       0.4       0.0
 5 H  px              0.2       0.0       0.4       0.1       0.0       1.0
 5 H  py              1.0       0.2       0.2       0.0       0.0       0.6
 6 H  s              19.1       8.1      12.8       0.4       0.4       5.9
 6 H  pz              0.3       0.0       0.3       0.1       0.4       0.0
 6 H  px              0.2       0.0       0.4       0.1       0.0       1.0
 6 H  py              1.0       0.2       0.2       0.0       0.0       0.6

                     36        37        38        39        40        41   
                   1.59062   1.59657   1.64436   1.86334   1.88028   1.94103
                   0.00000   0.00000   0.00000   0.00000   0.00000   0.00000
                  --------  --------  --------  --------  --------  --------
 0 C  s              20.2       0.0      27.2       0.0       0.0       1.0
 0 C  pz              9.6       0.0       4.5       0.0       0.0       0.3
 0 C  px              2.3       0.0       1.7       0.0       0.0       0.6
 0 C  py              0.0       7.8       0.0       0.8       0.0       0.0
 0 C  dz2             4.1       0.0       0.1       0.0       0.0       0.3
 0 C  dxz            21.5       0.0      13.3       0.0       0.0       4.1
 0 C  dyz             0.0       4.7       0.0       1.2       0.0       0.0
 0 C  dx2y2           0.2       0.0       7.1       0.0       0.0       0.2
 0 C  dxy             0.0      37.4       0.0       4.6       0.4       0.0
 1 N  s               0.8       0.0       3.3       0.0       0.0       0.8
 1 N  pz              1.7       0.0       0.6       0.0       0.0      36.2
 1 N  px              0.7       0.0       3.7       0.0       0.0       0.5
 1 N  py              0.0       0.4       0.0      27.3       0.8       0.0
 1 N  dz2             0.3       0.0       0.3       0.0       0.0       7.7
 1 N  dxz             2.5       0.0       2.7       0.0       0.0       0.8
 1 N  dyz             0.0       1.8       0.0       6.5       0.1       0.0
 1 N  dx2y2           0.7       0.0       3.7       0.0       0.0       5.6
 1 N  dxy             0.0       4.7       0.0       7.1       0.6       0.0
 2 H  s               3.1       0.1       5.2       0.1       0.0       0.0
 2 H  pz              0.1       1.9       0.0       0.4      25.0       2.3
 2 H  px              1.1      10.4       3.5       5.6       0.3       2.4
 2 H  py              1.0       2.1       0.3       0.2       9.2       0.2
 3 H  s               3.1       0.1       5.2       0.1       0.0       0.0
 3 H  pz              0.1       1.8       0.0       0.4      25.0       2.3
 3 H  px              1.1      10.4       3.5       5.6       0.3       2.4
 3 H  py              1.0       2.1       0.3       0.2       9.2       0.2
 4 H  s               2.6       0.0       5.9       0.0       0.0       0.1
 4 H  pz              3.3       0.0       2.4       0.0       0.0       0.7
 4 H  px             15.6       0.0       2.2       0.0       0.0       8.4
 4 H  py              0.0       1.3       0.0       6.4      28.1       0.0
 5 H  s               0.0       0.7       0.3       0.5       0.0       0.2
 5 H  pz              0.4       0.0       0.2       3.6       0.0       9.5
 5 H  px              1.2       4.8       1.2       0.9       0.1       0.3
 5 H  py              0.0       1.0       0.0      11.7       0.3       1.4
 6 H  s               0.0       0.7       0.3       0.5       0.0       0.2
 6 H  pz              0.4       0.0       0.2       3.6       0.0       9.5
 6 H  px              1.2       4.8       1.2       0.9       0.1       0.3
 6 H  py              0.0       1.0       0.0      11.7       0.3       1.4

                     42        43        44        45        46        47   
                   2.01020   2.04220   2.12342   2.18212   2.21463   2.29418
                   0.00000   0.00000   0.00000   0.00000   0.00000   0.00000
                  --------  --------  --------  --------  --------  --------
 0 C  s               5.2       0.0       0.5       0.2       0.0       1.1
 0 C  pz              1.3       0.0       6.5       2.5       0.0      13.9
 0 C  px              0.8       0.0       0.3       0.7       0.0       3.7
 0 C  py              0.0       3.1       0.0       0.0       4.8       0.0
 0 C  dz2             0.4       0.0       0.5       0.1       0.0      15.5
 0 C  dxz             3.0       0.0       2.3       4.5       0.0       4.1
 0 C  dyz             0.0       1.1       0.0       0.0       0.6       0.0
 0 C  dx2y2           0.0       0.0       0.7       7.5       0.0       0.4
 0 C  dxy             0.0       1.8       0.0       0.0       0.8       0.0
 1 N  s               1.4       0.0       0.3      31.7       0.0       3.3
 1 N  pz              4.2       0.0       0.4      14.4       0.0       1.3
 1 N  px             21.8       0.0       1.2       5.3       0.0       2.2
 1 N  py              0.0       2.0       0.0       0.0       1.8       0.0
 1 N  dz2             0.7       0.0       8.2       9.5       0.0       9.1
 1 N  dxz             4.3       0.0      15.8       7.1       0.0       1.3
 1 N  dyz             0.0       6.1       0.0       0.0       4.8       0.0
 1 N  dx2y2          17.7       0.0       1.0       1.4       0.0       1.1
 1 N  dxy             0.0      14.4       0.0       0.0      11.2       0.0
 2 H  s               0.0       0.1       0.1       0.8       1.3       1.4
 2 H  pz              0.0       0.4       4.1       0.6       0.0       1.4
 2 H  px              0.5       4.6       3.9       0.0       3.5       1.0
 2 H  py              0.0       1.6       0.2       1.9       9.2       0.4
 3 H  s               0.0       0.1       0.1       0.8       1.3       1.4
 3 H  pz              0.0       0.4       4.1       0.6       0.0       1.4
 3 H  px              0.5       4.6       3.9       0.0       3.5       1.0
 3 H  py              0.0       1.6       0.2       1.9       9.2       0.4
 4 H  s               0.1       0.0       0.4       1.3       0.0      10.8
 4 H  pz              0.0       0.0       7.8       1.6       0.0      19.2
 4 H  px              1.4       0.0      12.9       3.3       0.0       2.7
 4 H  py              0.0       0.9       0.0       0.0       5.9       0.0
 5 H  s               0.1       0.0       0.0       0.1       0.1       0.2
 5 H  pz              0.2      23.0       9.5       0.4       0.7       0.2
 5 H  px             17.3       0.7       0.7       0.6      16.2       0.2
 5 H  py              0.8       4.8       2.1       0.0       4.0       0.5
 6 H  s               0.1       0.0       0.0       0.1       0.1       0.2
 6 H  pz              0.2      23.0       9.5       0.4       0.7       0.2
 6 H  px             17.3       0.7       0.7       0.6      16.2       0.2
 6 H  py              0.8       4.8       2.1       0.0       4.0       0.5

                     48        49        50        51        52        53   
                   2.33483   2.34399   2.47956   2.54338   2.60029   2.64511
                   0.00000   0.00000   0.00000   0.00000   0.00000   0.00000
                  --------  --------  --------  --------  --------  --------
 0 C  s               0.0       3.8       0.0       1.0       0.5       0.0
 0 C  pz              0.0       0.4       0.0       0.2       5.1       0.0
 0 C  px              0.0      26.6       0.0       0.8       0.0       0.0
 0 C  py             14.5       0.0       3.0       0.0       0.0       0.5
 0 C  dz2             0.0       0.4       0.0       0.5       9.3       0.0
 0 C  dxz             0.0       1.4       0.0       0.0       2.0       0.0
 0 C  dyz            13.8       0.0       2.4       0.0       0.0       0.1
 0 C  dx2y2           0.0       7.7       0.0      12.2       0.1       0.0
 0 C  dxy             5.3       0.0       5.8       0.0       0.0       1.3
 1 N  s               0.0      23.1       0.0       1.5       2.2       0.0
 1 N  pz              0.0       0.4       0.0       8.9      16.7       0.0
 1 N  px              0.0      12.0       0.0       2.3       7.8       0.0
 1 N  py              1.2       0.0       7.8       0.0       0.0      39.9
 1 N  dz2             0.0       0.2       0.0       1.7       2.3       0.0
 1 N  dxz             0.0       0.0       0.0      11.3      11.8       0.0
 1 N  dyz             1.8       0.0      36.4       0.0       0.0       0.8
 1 N  dx2y2           0.0       2.4       0.0       4.6       1.2       0.0
 1 N  dxy             1.7       0.0       0.1       0.0       0.0       8.4
 2 H  s               7.3       1.7       0.2       0.2       0.0       0.1
 2 H  pz              2.4       0.1       0.8       0.0      12.4       0.0
 2 H  px              7.6       7.2       2.7       5.7       0.6       1.0
 2 H  py              7.7       0.9       0.6       2.3       2.0       0.4
 3 H  s               7.3       1.7       0.2       0.2       0.0       0.1
 3 H  pz              2.4       0.1       0.8       0.0      12.4       0.0
 3 H  px              7.6       7.2       2.7       5.7       0.6       1.0
 3 H  py              7.7       0.9       0.6       2.3       2.0       0.4
 4 H  s               0.0       0.0       0.0       0.2       0.3       0.0
 4 H  pz              0.0       0.1       0.0       0.2       0.2       0.0
 4 H  px              0.0       1.6       0.0      11.5       1.5       0.0
 4 H  py              0.0       0.0       6.2       0.0       0.0       0.2
 5 H  s               0.1       0.0       1.8       1.4       0.9       2.9
 5 H  pz              0.4       0.0      10.0       6.0       0.9       0.7
 5 H  px              4.3       0.0       1.8       0.8       2.3       5.9
 5 H  py              1.2       0.0       1.1       5.0       0.4      13.4
 6 H  s               0.1       0.0       1.8       1.4       0.9       2.9
 6 H  pz              0.4       0.0      10.0       6.0       0.9       0.7
 6 H  px              4.3       0.0       1.8       0.8       2.3       5.9
 6 H  py              1.2       0.0       1.1       5.0       0.4      13.4

                     54        55        56        57        58        59   
                   2.72248   2.75464   2.77377   2.95396   3.15126   3.15165
                   0.00000   0.00000   0.00000   0.00000   0.00000   0.00000
                  --------  --------  --------  --------  --------  --------
 0 C  s               0.7       1.0       0.0       1.6      15.7       0.0
 0 C  pz              0.3       2.2       0.0       0.3       0.0       0.0
 0 C  px              2.1       1.4       0.0       0.4       1.2       0.0
 0 C  py              0.0       0.0       5.1       0.0       0.0       2.4
 0 C  dz2             7.1       3.2       0.0       5.4       0.2       0.0
 0 C  dxz             0.9       2.6       0.0      12.3       0.6       0.0
 0 C  dyz             0.0       0.0      21.7       0.0       0.0       2.7
 0 C  dx2y2           2.1       7.1       0.0       3.3       1.0       0.0
 0 C  dxy             0.0       0.0       4.8       0.0       0.0      14.2
 1 N  s              17.3       1.6       0.0       2.7       2.9       0.0
 1 N  pz              4.1       0.8       0.0      10.4       0.2       0.0
 1 N  px              1.0      10.2       0.0       4.6       5.3       0.0
 1 N  py              0.0       0.0       1.3       0.0       0.0       6.0
 1 N  dz2             3.4      16.2       0.0      13.1       8.3       0.0
 1 N  dxz             0.8       3.4       0.0       5.4       0.2       0.0
 1 N  dyz             0.0       0.0       3.8       0.0       0.0       8.3
 1 N  dx2y2           2.8       3.6       0.0       0.2       0.2       0.0
 1 N  dxy             0.0       0.0       2.0       0.0       0.0      43.1
 2 H  s               0.0       0.1       0.2       0.1       1.8       0.1
 2 H  pz              4.0       4.4       7.5       1.5       4.5       0.2
 2 H  px              4.8       5.2       3.0       0.2       3.0       3.1
 2 H  py              0.2       4.7       0.5       3.8       9.6       0.0
 3 H  s               0.0       0.1       0.2       0.1       1.8       0.1
 3 H  pz              4.0       4.4       7.5       1.5       4.6       0.1
 3 H  px              4.8       5.2       3.0       0.2       2.8       3.3
 3 H  py              0.2       4.7       0.5       3.8       9.6       0.0
 4 H  s               0.0       0.0       0.0       0.3       2.6       0.0
 4 H  pz              2.9       0.4       0.0       0.0      19.3       0.0
 4 H  px             12.0       0.2       0.0       6.9       2.1       0.0
 4 H  py              0.0       0.0      29.9       0.0       0.0       0.4
 5 H  s               1.8       0.1       0.0       0.2       0.0       0.1
 5 H  pz              1.1       3.7       2.6       3.1       0.9       1.9
 5 H  px              3.6       4.6       1.1       2.7       0.2       5.4
 5 H  py              5.8       0.3       0.8       4.9       0.2       0.6
 6 H  s               1.8       0.1       0.0       0.2       0.0       0.1
 6 H  pz              1.1       3.7       2.6       3.1       0.8       2.0
 6 H  px              3.6       4.6       1.1       2.7       0.2       5.4
 6 H  py              5.8       0.3       0.8       4.9       0.3       0.6

                     60        61        62        63        64        65   
                   3.19305   3.51563   3.53288   3.55757   4.05585   4.31125
                   0.00000   0.00000   0.00000   0.00000   0.00000   0.00000
                  --------  --------  --------  --------  --------  --------
 0 C  s               0.4       0.8       0.0       0.7       1.8       0.0
 0 C  pz              2.3       4.8       0.0       7.1       0.0       0.0
 0 C  px              0.0       3.3       0.0       2.8       6.5       0.0
 0 C  py              0.0       0.0      13.3       0.0       0.0       0.0
 0 C  dz2             0.3       1.0       0.0      14.2       2.3       0.0
 0 C  dxz             1.1       8.2       0.0       5.2       0.1       0.0
 0 C  dyz             0.0       0.0      17.1       0.0       0.0       0.2
 0 C  dx2y2           0.1      10.1       0.0       0.0       8.3       0.0
 0 C  dxy             0.0       0.0      11.0       0.0       0.0       0.3
 1 N  s               0.5      11.9       0.0       9.0       1.2       0.0
 1 N  pz              0.2       1.6       0.0       0.6       2.0       0.0
 1 N  px              2.0       1.6       0.0       2.5      16.8       0.0
 1 N  py              0.0       0.0       0.5       0.0       0.0      14.9
 1 N  dz2             3.6       6.5       0.0      11.9       0.9       0.0
 1 N  dxz            25.1       7.0       0.0       0.5       6.8       0.0
 1 N  dyz             0.0       0.0       0.0       0.0       0.0      31.5
 1 N  dx2y2          22.5       0.2       0.0       0.5      31.1       0.0
 1 N  dxy             0.0       0.0       0.5       0.0       0.0      14.2
 2 H  s               0.5       2.4       8.2       0.7       0.2       0.0
 2 H  pz              0.1       0.7       6.1       0.0       0.1       0.0
 2 H  px              1.4       0.1       2.6       0.8       0.0       0.0
 2 H  py              1.6       7.0      11.3       1.0       0.4       0.1
 3 H  s               0.5       2.4       8.2       0.7       0.2       0.0
 3 H  pz              0.1       0.7       6.1       0.0       0.1       0.0
 3 H  px              1.4       0.1       2.6       0.8       0.0       0.0
 3 H  py              1.6       7.0      11.3       1.0       0.4       0.1
 4 H  s               0.3       2.4       0.0       7.9       0.2       0.0
 4 H  pz              0.2       4.2       0.0      18.9       0.2       0.0
 4 H  px              0.9       0.9       0.0       2.0       0.0       0.0
 4 H  py              0.0       0.0       0.8       0.0       0.0       0.0
 5 H  s               0.0       1.4       0.1       0.9       3.4       7.9
 5 H  pz              4.2       0.8       0.1       2.0       0.9       2.5
 5 H  px              7.3       0.3       0.0       1.2       0.2       2.3
 5 H  py              5.0       5.0       0.0       1.4       5.5       6.7
 6 H  s               0.0       1.4       0.1       0.9       3.4       7.9
 6 H  pz              4.2       0.8       0.1       2.0       0.9       2.5
 6 H  px              7.3       0.3       0.0       1.2       0.2       2.3
 6 H  py              5.0       5.0       0.0       1.4       5.5       6.7

                     66        67   
                  21.92778  31.72451
                   0.00000   0.00000
                  --------  --------
 0 C  s              99.6       0.0
 1 N  s               0.1      99.8


                      *****************************
                      * MAYER POPULATION ANALYSIS *
                      *****************************

  NA   - Mulliken gross atomic population
  ZA   - Total nuclear charge
  QA   - Mulliken gross atomic charge
  VA   - Mayer's total valence
  BVA  - Mayer's bonded valence
  FA   - Mayer's free valence

  ATOM       NA         ZA         QA         VA         BVA        FA
  0 C      6.3181     6.0000    -0.3181     3.8372     3.8372    -0.0000
  1 N      7.5656     7.0000    -0.5656     2.7196     2.7196     0.0000
  2 H      0.8591     1.0000     0.1409     0.9601     0.9601    -0.0000
  3 H      0.8591     1.0000     0.1409     0.9601     0.9601    -0.0000
  4 H      0.8808     1.0000     0.1192     0.9551     0.9551    -0.0000
  5 H      0.7587     1.0000     0.2413     0.9319     0.9319     0.0000
  6 H      0.7587     1.0000     0.2413     0.9319     0.9319     0.0000

  Mayer bond orders larger than 0.100000
B(  0-C ,  1-N ) :   0.9142 B(  0-C ,  2-H ) :   0.9806 B(  0-C ,  3-H ) :   0.9806 
B(  0-C ,  4-H ) :   0.9607 B(  1-N ,  5-H ) :   0.9229 B(  1-N ,  6-H ) :   0.9229 


-------
TIMINGS
-------

Total SCF time: 0 days 0 hours 0 min 4 sec 

Total time                  ....       4.692 sec
Sum of individual times     ....       4.347 sec  ( 92.6%)

SCF preparation             ....       0.151 sec  (  3.2%)
Fock matrix formation       ....       3.705 sec  ( 79.0%)
  Startup                   ....       0.049 sec  (  1.3% of F)
  Split-RI-J                ....       0.238 sec  (  6.4% of F)
  XC integration            ....       3.011 sec  ( 81.3% of F)
    XC Preparation          ....       0.000 sec  (  0.0% of XC)
    Basis function eval.    ....       0.491 sec  ( 16.3% of XC)
    Density eval.           ....       0.596 sec  ( 19.8% of XC)
    XC-Functional eval.     ....       0.621 sec  ( 20.6% of XC)
    XC-Potential eval.      ....       0.637 sec  ( 21.2% of XC)
Diagonalization             ....       0.000 sec  (  0.0%)
Density matrix formation    ....       0.148 sec  (  3.2%)
Total Energy calculation    ....       0.026 sec  (  0.6%)
Population analysis         ....       0.037 sec  (  0.8%)
Orbital Transformation      ....       0.037 sec  (  0.8%)
Orbital Orthonormalization  ....       0.000 sec  (  0.0%)
DIIS solution               ....       0.210 sec  (  4.5%)
  MO trafo                  ....       0.000 sec  (  0.0 % of DIIS)
  Orb grad                  ....       0.000 sec  (  0.0 % of DIIS)
  Energy W gradient         ....       0.000 sec  (  0.0 % of DIIS)
  DIIS error                ....       0.001 sec  (  0.4 % of DIIS)
  DIIS work                 ....       0.175 sec  ( 83.5 % of DIIS)
  Form Q                    ....       0.000 sec  (  0.0 % of DIIS)
  Form QpQm                 ....       0.000 sec  (  0.0 % of DIIS)
  Exp/Cayley                ....       0.000 sec  (  0.0 % of DIIS)
  Orb update                ....       0.000 sec  (  0.0 % of DIIS)
  Wake-sleep                ....       0.016 sec  (  7.7 % of DIIS)
SOSCF solution              ....       0.032 sec  (  0.7%)
  MO trafo                  ....       0.025 sec  ( 78.5 % of SOSCF)
  Orb grad                  ....       0.001 sec  (  2.1 % of SOSCF)
  Rot update                ....       0.000 sec  (  0.0 % of SOSCF)
  Step                      ....       0.006 sec  ( 19.3 % of SOSCF)
Finished LeanSCF after   4.8 sec

Maximum memory used throughout the entire LEANSCF-calculation: 7.6 MB


-------------------------------------------------------------------------------
                          DFT DISPERSION CORRECTION                            
                                                                               
                                DFTD4 V3.4.0                                   
-------------------------------------------------------------------------------
The R2SCAN3C composite method is recognized
Using three-body term ABC
Active option DFTDOPT                   ...         5   

-------------------------   ----------------
Dispersion correction           -0.000706419
-------------------------   ----------------

------------------   -----------------
gCP correction             0.006995676
------------------   -----------------

-------------------------   --------------------
FINAL SINGLE POINT ENERGY       -95.822529008798
-------------------------   --------------------


------------------------------------------------------------------------------
                              ORCA PROPERTY CALCULATIONS
------------------------------------------------------------------------------

GBWName                                 ... sp_gas.gbw
Number of atoms                         ...      7
Number of basis functions               ...     68
Max core memory                         ...   1024 MB

Electric properties:
Dipole moment                           ... YES
Quadrupole moment                       ...  NO
Static polarizability (Dipole/Dipole)   ...  NO
Static polarizability (Dipole/Quad.)    ...  NO
Static polarizability (Quad./Quad.)     ...  NO
Static polarizability (Velocity)        ...  NO

Atomic electric properties:
Dipole moment                           ...  NO
Quadrupole moment                       ...  NO
Static polarizability                   ...  NO

Choice of electric origin               ... Center of mass
Position of electric origin             ...     0.000003     0.000000     0.000002

General magnetic properties:
Magnetizability                         ...  NO

EPR properties:
g-Tensor (aka g-matrix)                 ...  NO
Zero-Field splitting spin-orbit         ...  NO
Zero-field splitting spin-spin          ...  NO
Hyperfine couplings                     ...  NO (   0 nuclei)
Quadrupole couplings                    ...  NO (   0 nuclei)
Contact density                         ...  NO (   0 nuclei)

NMR properties:
Chemical shifts                         ...  NO (   0 nuclei)
Spin-rotation constants                 ...  NO (   0 nuclei)
Spin-spin couplings                     ...  NO (   0 nuclei,    0 pairs)

Choice of magnetic origin               ... GIAO
Position of magnetic origin             ...     0.000000     0.000000     0.000000

Properties with geometric perturbations:
SCF Hessian                             ...  NO
IR spectrum                             ...  NO
VCD spectrum                            ...  NO
X-ray spectroscopy properties:
SCF XES/XAS/RIXS spectra                ...  NO


-------------
DIPOLE MOMENT
-------------

Method             : SCF
Type of density    : Electron Density
Multiplicity       :   1
Irrep              :   0
Energy             :   -95.8288182658052392 Eh
Relativity type    : 
Basis              : AO
                                X                 Y                 Z
Electronic contribution:     -1.004110545      -0.000031102      -0.294272455
Nuclear contribution   :      1.111896724       0.000063274       0.793815831
                        -----------------------------------------
Total Dipole Moment    :      0.107786179       0.000032172       0.499543376
                        -----------------------------------------
Magnitude (a.u.)       :      0.511039574
Magnitude (Debye)      :      1.298959367



--------------------
Rotational spectrum 
--------------------
 
Rotational constants in cm-1:             3.430915             0.770314             0.739094 
Rotational constants in MHz :        102856.247255         23093.428110         22157.490888 

Dipole components along the rotational axes: 
x,y,z [a.u.] :    -0.107785     0.000032     0.499544 
x,y,z [Debye]:    -0.273968     0.000082     1.269739 

 

Dipole moment calculation done in   0.0 sec 

Maximum memory used throughout the entire PROP-calculation: 4.5 MB

--------------------------------
SUGGESTED CITATIONS FOR THIS RUN
--------------------------------

Below you find a list of papers that are relevant to this ORCA run
We neither can nor want to force you to cite these papers, but we appreciate if you do
You receive ORCA, which is the product of decades of hard work by many enthusiastic individuals, for free
The only thing we kindly ask in return is that you cite our papers,
We deeply appreciate it, if you show your appreciation for ORCA by not just citing the generic ORCA reference.

Please note that relegating all ORCA citations to the supporting information does *not* help us.
SI sections are not indexed - citations you put there will not count into any citation statistics
But we need these citations in order to attract the funding resources that allow us to do what we are doing

Therefore, if you are a happy ORCA user, please consider citing a few of the papers listed below in the main body of your paper

In addition to the list printed below, the program has created the file sp_gas.bibtex that contains the list in bibtex format
You can import this file easily into all common literature databanks and citation aid programs


List of essential papers. We consider these as the minimum necessary citations

  1. Neese,F.
     Software update: the ORCA program system, version 5.0
     WIRES Comput. Molec. Sci., 2022 12(1)e1606
     doi.org/10.1002/wcms.1606
  2. Grimme,S.; Hansen,A.; Ehlert,S.; Mewes,J.
     r2SCAN-3c: A 'Swiss army knife' composite electronic-structure method
     J. Chem. Phys., 2021 154 064103
     doi.org/10.1063/5.0040021

List of papers to cite with high priority. The work reported in these papers was absolutely
necessary for this run to complete.
Our perspective: the developers of density functionals and basis sets usually get cited in chemistry papers
Good! But without the algorithms to do something with them, the functionals or basis sets would not do anything.
Hence, in our opinion, the algorithm design and method developments papers are equally worthy of getting cited

  1. Neese,F.
     An improvement of the resolution of the identity approximation for the formation of the Coulomb matrix
     J. Comp. Chem., 2003 24(14)1740-1747
     doi.org/10.1002/jcc.10318
  2. Neese,F.
     The SHARK Integral Generation and Digestion System
     J. Comp. Chem., 2022  1-16
     doi.org/10.1002/jcc.26942
  3. Lehtola,S.; Steigemann,C.; Oliveira,M.; Marques,M.
     Recent developments in Libxc - A comprehensive library of functionals for density functional theory
     Software X, 2018 7 
     doi.org/10.1016/j.softx.2017.11.002
  4. Caldeweyher,E.; Bannwarth,C.; Grimme,S.
     Extension of the D3 dispersion coefficient model
     J. Chem. Phys., 2017 147 034112-XXXX
     doi.org/10.1063/1.4993215
  5. Caldeweyher,E.; Ehlert,S.; Hansen,A.; Neugebauer,H.; Spicher,S.; Bannwarth,C.; Grimme,S.
     A generally applicable atomic-charge dependent London dispersion correction
     J. Chem. Phys., 2019 150 154122-XXXX
     doi.org/10.1063/1.5090222
  6. Caldeweyher,E.; Mewes,J.; Ehlert,S.; Grimme,S.
     Extension and evaluation of the D4 London-dispersion model for periodic systems
     Phys. Chem. Chem. Phys., 2020 22(16)8499-8512
     doi.org/10.1039/D0CP00502A

List of suggested additional citations. These are papers that are important in the 'surrounding' of 
of this run, or papers that preceded the highly important papers. If you like your results we are grateful for a citation.

  1. Neese,F.
     The ORCA program system
     WIRES Comput. Molec. Sci., 2012 2(1)73-78
     doi.org/10.1002/wcms.81
  2. Neese,F.
     Software update: the ORCA program system, version 4.0
     WIRES Comput. Molec. Sci., 2018 8(1)1-6
     doi.org/10.1002/wcms.1327
  3. Neese,F.; Wennmohs,F.; Becker,U.; Riplinger,C.
     The ORCA quantum chemistry program package
     J. Chem. Phys., 2020 152 Art. No. L224108
     doi.org/10.1063/5.0004608

List of optional additional citations

  1. Neese,F.
     Approximate second-order SCF convergence for spin unrestricted wavefunctions
     Chem. Phys. Lett., 2000 325(1-3)93-98
     doi.org/10.1016/s0009-2614(00)00662-x

Timings for individual modules:

Sum of individual times          ...        5.471 sec (=   0.091 min)
Startup calculation              ...        0.402 sec (=   0.007 min)   7.4 %
SCF iterations                   ...        4.972 sec (=   0.083 min)  90.9 %
Property calculations            ...        0.097 sec (=   0.002 min)   1.8 %
                             ****ORCA TERMINATED NORMALLY****
TOTAL RUN TIME: 0 days 0 hours 0 minutes 6 seconds 52 msec
