 Entering Gaussian System
 *********************************************
 Gaussian 98:
 frequency output generated by the xtb code
 *********************************************
                         Standard orientation:
 --------------------------------------------------------------------
  Center     Atomic     Atomic              Coordinates (Angstroms)
  Number     Number      Type              X           Y           Z
 --------------------------------------------------------------------
    1          6             0       -3.203579    0.562781   -0.006985
    2          8             0       -2.297245   -0.519406   -0.004175
    3          6             0       -0.948305   -0.238303   -0.001263
    4          6             0       -0.097899   -1.342578    0.000536
    5          6             0        1.269200   -1.177186    0.007415
    6          6             0        1.836010    0.100784    0.011051
    7          6             0        0.976487    1.197640    0.010581
    8          6             0       -0.397867    1.035714    0.003300
    9          7             0        3.204351    0.268638   -0.058884
   10          1             0       -3.086736    1.180672    0.888158
   11          1             0       -4.192471    0.109331   -0.010520
   12          1             0       -3.080438    1.181306   -0.900780
   13          1             0       -0.537731   -2.327722   -0.000815
   14          1             0        1.912612   -2.044315    0.007952
   15          1             0        1.389466    2.195640    0.013562
   16          1             0       -1.024615    1.913273    0.003939
   17          1             0        3.755434   -0.518076    0.242795
   18          1             0        3.550489    1.163622    0.245809
 --------------------------------------------------------------------
     1 basis functions        1 primitive gaussians
     1 alpha electrons        1 beta electrons
 
 Harmonic frequencies (cm**-1), IR intensities (km*mol⁻¹),
 Raman scattering activities (A**4/amu), Raman depolarization ratios,
 reduced masses (AMU), force constants (mDyne/A) and normal coordinates:
                      1                      2                      3
                        a                      a                      a 
 Frequencies --    74.4253               145.5243               220.4893
 Red. masses --     9.6552                11.8189                 9.5275
 Frc consts  --     0.0000                 0.0000                 0.0000
 IR Inten    --     7.1327                 1.8294                 4.2818
 Raman Activ --     0.0000                 0.0000                 0.0000
 Depolar     --     0.0000                 0.0000                 0.0000
 Atom AN      X      Y      Z        X      Y      Z        X      Y      Z
   1   6     0.00   0.00  -0.55     0.00   0.00   0.08     0.42   0.43   0.00
   2   8    -0.00   0.00   0.29     0.00   0.00  -0.60    -0.10  -0.01   0.00
   3   6     0.00  -0.00   0.24     0.00  -0.00   0.01    -0.03  -0.29  -0.00
   4   6     0.00  -0.00   0.06     0.00  -0.00   0.28     0.05  -0.23   0.00
   5   6     0.00  -0.00  -0.08     0.00   0.00   0.32     0.06  -0.07  -0.00
   6   6     0.00  -0.00  -0.05     0.00   0.00   0.06    -0.07  -0.01  -0.00
   7   6     0.00  -0.00   0.22     0.00   0.00   0.19    -0.17  -0.10  -0.00
   8   6     0.00  -0.00   0.36     0.00  -0.00   0.17    -0.12  -0.25  -0.01
   9   7    -0.01   0.01  -0.32    -0.03  -0.01  -0.44    -0.12   0.33   0.00
  10   1    -0.14   0.08  -0.20    -0.01  -0.16   0.14     0.21   0.10   0.00
  11   1     0.00   0.00  -0.27     0.00   0.00  -0.08     0.06   0.27  -0.00
  12   1     0.14  -0.08  -0.20     0.01   0.16   0.14     0.21   0.10  -0.00
  13   1    -0.00  -0.00   0.00     0.00  -0.00   0.10     0.05  -0.08   0.00
  14   1     0.00  -0.00  -0.07    -0.00  -0.00   0.13     0.04  -0.00  -0.00
  15   1     0.00  -0.00   0.09    -0.00   0.00   0.06    -0.08  -0.02  -0.00
  16   1    -0.00  -0.00   0.16    -0.00  -0.00   0.05    -0.04  -0.08  -0.00
  17   1     0.01  -0.01  -0.14     0.02   0.01  -0.15     0.03   0.13   0.00
  18   1     0.01  -0.01  -0.08     0.02   0.01  -0.18    -0.10   0.12  -0.00
                      4                      5                      6
                        a                      a                      a 
 Frequencies --   233.5631               345.8044               357.1432
 Red. masses --     2.2343                 3.4777                10.5740
 Frc consts  --     0.0000                 0.0000                 0.0000
 IR Inten    --     0.2986                16.3491                 8.4928
 Raman Activ --     0.0000                 0.0000                 0.0000
 Depolar     --     0.0000                 0.0000                 0.0000
 Atom AN      X      Y      Z        X      Y      Z        X      Y      Z
   1   6     0.00   0.00  -0.04     0.18  -0.01   0.00     0.23  -0.03   0.02
   2   8     0.00   0.00  -0.12     0.05  -0.12  -0.03     0.10  -0.14   0.25
   3   6     0.00  -0.00  -0.07     0.01  -0.03   0.04     0.04   0.01  -0.28
   4   6     0.00  -0.00   0.00     0.02  -0.00   0.19     0.02   0.01  -0.38
   5   6     0.00  -0.00   0.05    -0.02   0.13  -0.09    -0.04   0.12   0.33
   6   6     0.00  -0.00   0.10    -0.08   0.15  -0.04    -0.12   0.15   0.27
   7   6     0.00  -0.00   0.22    -0.08   0.15   0.03    -0.09   0.18   0.10
   8   6     0.00  -0.00   0.03    -0.07   0.02  -0.12    -0.09   0.06  -0.10
   9   7    -0.02   0.01  -0.14    -0.06  -0.12   0.03    -0.12  -0.30  -0.17
  10   1     0.36   0.30  -0.27     0.07  -0.02   0.01     0.04  -0.02   0.02
  11   1    -0.00  -0.00   0.55     0.03   0.04  -0.02     0.05   0.04  -0.06
  12   1    -0.36  -0.30  -0.27     0.08   0.01   0.01     0.15  -0.01   0.02
  13   1    -0.00  -0.00  -0.01     0.02  -0.01   0.11     0.01   0.00  -0.17
  14   1    -0.00  -0.00   0.00     0.02   0.05  -0.05     0.02   0.06   0.15
  15   1     0.00  -0.00   0.09    -0.04   0.05   0.03    -0.04   0.06   0.02
  16   1     0.00   0.00  -0.03    -0.04  -0.01  -0.08    -0.04   0.00  -0.01
  17   1     0.01  -0.01  -0.09    -0.11  -0.30  -0.51    -0.08  -0.09   0.03
  18   1     0.01  -0.01  -0.03     0.13  -0.27   0.54     0.10  -0.06  -0.25
                      7                      8                      9
                        a                      a                      a 
 Frequencies --   362.0998               387.8912               404.6407
 Red. masses --     9.5364                 8.6112                10.9729
 Frc consts  --     0.0000                 0.0000                 0.0000
 IR Inten    --     6.0625                 1.8084                 1.1965
 Raman Activ --     0.0000                 0.0000                 0.0000
 Depolar     --     0.0000                 0.0000                 0.0000
 Atom AN      X      Y      Z        X      Y      Z        X      Y      Z
   1   6    -0.23   0.03   0.03     0.14  -0.06   0.01    -0.24   0.16   0.00
   2   8    -0.09   0.15   0.23     0.12  -0.06   0.04    -0.36   0.02   0.02
   3   6    -0.03  -0.00  -0.27     0.05   0.07  -0.04    -0.18  -0.23  -0.03
   4   6    -0.01  -0.01  -0.11    -0.03   0.02   0.33     0.12  -0.04   0.06
   5   6     0.04  -0.13   0.14    -0.05  -0.04  -0.37     0.11   0.30  -0.08
   6   6     0.12  -0.16   0.24    -0.10  -0.02   0.03     0.24   0.25   0.02
   7   6     0.09  -0.18   0.26    -0.02   0.04   0.42    -0.02   0.06   0.12
   8   6     0.09  -0.06  -0.33    -0.02   0.10  -0.40    -0.03  -0.28  -0.09
   9   7     0.05   0.32  -0.16    -0.12  -0.09  -0.02     0.36  -0.22  -0.02
  10   1    -0.17  -0.01   0.03     0.01  -0.04   0.02    -0.06   0.04   0.01
  11   1    -0.04  -0.04  -0.09     0.03  -0.00  -0.05    -0.08   0.06  -0.01
  12   1    -0.02   0.04   0.04     0.08   0.01   0.03    -0.05   0.04   0.00
  13   1    -0.01  -0.00  -0.02    -0.04   0.02   0.19     0.15  -0.06   0.04
  14   1    -0.02  -0.06   0.05    -0.01  -0.00  -0.21     0.05   0.09  -0.05
  15   1     0.04  -0.06   0.12     0.01   0.00   0.24    -0.11   0.06   0.07
  16   1     0.04  -0.00  -0.15    -0.01   0.03  -0.22    -0.02  -0.09  -0.05
  17   1     0.14   0.05  -0.36    -0.02   0.07   0.21    -0.01  -0.08   0.13
  18   1    -0.03   0.03   0.17    -0.05   0.07  -0.24     0.20  -0.06  -0.13
                     10                     11                     12
                        a                      a                      a 
 Frequencies --   487.5536               500.1046               551.0487
 Red. masses --     7.9071                11.2948                 5.2781
 Frc consts  --     0.0000                 0.0000                 0.0000
 IR Inten    --    61.8902                 7.3985               594.4369
 Raman Activ --     0.0000                 0.0000                 0.0000
 Depolar     --     0.0000                 0.0000                 0.0000
 Atom AN      X      Y      Z        X      Y      Z        X      Y      Z
   1   6     0.04  -0.01   0.01     0.23  -0.08  -0.00    -0.01   0.00   0.00
   2   8    -0.00  -0.05   0.13    -0.25  -0.44  -0.02    -0.09  -0.05   0.03
   3   6    -0.04   0.03  -0.53    -0.30   0.19   0.07    -0.01   0.01  -0.20
   4   6    -0.03   0.04   0.10    -0.13   0.38  -0.02     0.04   0.05   0.09
   5   6    -0.03   0.01   0.11    -0.08   0.05  -0.00     0.05  -0.01  -0.07
   6   6     0.01  -0.01  -0.50     0.22  -0.09   0.08     0.06  -0.00  -0.15
   7   6    -0.01  -0.03   0.12     0.02  -0.21  -0.01     0.04   0.01  -0.06
   8   6    -0.02   0.02   0.11    -0.08   0.13  -0.02     0.04   0.00   0.09
   9   7     0.11   0.02  -0.01     0.27   0.07  -0.03    -0.20  -0.03   0.43
  10   1     0.01   0.01  -0.01     0.18  -0.04  -0.00     0.01   0.01  -0.00
  11   1     0.00   0.01   0.00    -0.02   0.16  -0.00    -0.02   0.03   0.00
  12   1     0.04  -0.02  -0.01     0.18  -0.04   0.00     0.01  -0.01  -0.00
  13   1    -0.01   0.01   0.25    -0.05   0.11  -0.04     0.01   0.01   0.12
  14   1    -0.02  -0.01   0.27    -0.12  -0.05  -0.03     0.00  -0.01   0.07
  15   1    -0.00  -0.01   0.26     0.01  -0.06  -0.04     0.01   0.00   0.07
  16   1     0.00   0.01   0.25     0.08   0.11  -0.04     0.02   0.01   0.12
  17   1    -0.07   0.01   0.22     0.11   0.04  -0.02     0.18  -0.06  -0.52
  18   1    -0.08  -0.02   0.22     0.03   0.03   0.01     0.16   0.10  -0.52
                     13                     14                     15
                        a                      a                      a 
 Frequencies --   612.8125               659.9840               736.8612
 Red. masses --    11.2534                11.4482                11.4166
 Frc consts  --     0.0000                 0.0000                 0.0000
 IR Inten    --     0.7439                10.8301                55.5131
 Raman Activ --     0.0000                 0.0000                 0.0000
 Depolar     --     0.0000                 0.0000                 0.0000
 Atom AN      X      Y      Z        X      Y      Z        X      Y      Z
   1   6    -0.08   0.10  -0.00    -0.01   0.00  -0.01    -0.16   0.08  -0.00
   2   8     0.01   0.10  -0.00    -0.02  -0.01  -0.06    -0.40  -0.30   0.00
   3   6     0.03   0.08   0.00     0.00   0.00   0.51     0.01   0.01  -0.02
   4   6     0.40   0.26   0.00     0.01   0.00  -0.31     0.24   0.08   0.01
   5   6     0.45  -0.22   0.00     0.01  -0.01   0.30     0.26  -0.14   0.00
   6   6    -0.02  -0.09  -0.00     0.00   0.00  -0.54    -0.16  -0.03   0.02
   7   6    -0.35  -0.27   0.00     0.01   0.01   0.30     0.29   0.25   0.00
   8   6    -0.40   0.20  -0.00     0.02   0.00  -0.31     0.30   0.07   0.01
   9   7    -0.03  -0.13  -0.01    -0.03  -0.00   0.12    -0.34  -0.04  -0.06
  10   1    -0.04   0.03   0.00     0.01  -0.01   0.00     0.06   0.00  -0.00
  11   1    -0.01  -0.01  -0.00    -0.00   0.01   0.00    -0.11   0.18  -0.00
  12   1    -0.04   0.03  -0.00    -0.01   0.01   0.00     0.06   0.00   0.00
  13   1     0.08   0.08  -0.00     0.00   0.00  -0.09     0.08   0.02  -0.01
  14   1     0.11  -0.07  -0.00     0.00  -0.00   0.13     0.12  -0.00  -0.02
  15   1    -0.06  -0.09   0.00     0.00   0.00   0.14     0.16   0.03  -0.02
  16   1    -0.09   0.07  -0.00     0.00   0.00  -0.07     0.10   0.04  -0.01
  17   1    -0.06  -0.07   0.02     0.00  -0.02  -0.05    -0.12   0.01   0.09
  18   1     0.05  -0.06   0.00    -0.00   0.02  -0.04    -0.14  -0.03   0.10
                     16                     17                     18
                        a                      a                      a 
 Frequencies --   791.3190               849.9019               866.6189
 Red. masses --     5.2200                 3.3329                11.1851
 Frc consts  --     0.0000                 0.0000                 0.0000
 IR Inten    --    65.6077                 0.8155                 9.2065
 Raman Activ --     0.0000                 0.0000                 0.0000
 Depolar     --     0.0000                 0.0000                 0.0000
 Atom AN      X      Y      Z        X      Y      Z        X      Y      Z
   1   6     0.00  -0.00   0.01     0.00  -0.00   0.00     0.10  -0.06   0.00
   2   8     0.01   0.01   0.06    -0.00  -0.00   0.00     0.15   0.15   0.00
   3   6     0.00   0.00  -0.27     0.00   0.00  -0.04    -0.17  -0.02  -0.00
   4   6    -0.01  -0.01   0.16    -0.00  -0.00   0.22     0.11   0.45   0.01
   5   6    -0.01   0.00   0.22    -0.00  -0.00   0.28    -0.02   0.32   0.00
   6   6     0.01   0.00  -0.31     0.00  -0.00  -0.03    -0.03  -0.01  -0.00
   7   6    -0.01  -0.00   0.25     0.00  -0.00  -0.19     0.04  -0.32  -0.01
   8   6    -0.01   0.00   0.24     0.00   0.00  -0.21     0.22  -0.43   0.01
   9   7     0.01   0.00   0.08     0.00   0.00   0.01    -0.37  -0.05  -0.01
  10   1    -0.01  -0.00   0.01    -0.00   0.01  -0.01    -0.03  -0.00  -0.00
  11   1     0.00  -0.00  -0.02    -0.00   0.00   0.01     0.07  -0.11  -0.00
  12   1     0.01   0.00   0.01     0.00  -0.01  -0.01    -0.03  -0.00   0.00
  13   1    -0.00  -0.00  -0.30    -0.00   0.00  -0.40     0.15   0.08  -0.01
  14   1     0.00   0.00  -0.37     0.01   0.00  -0.56    -0.06   0.06  -0.00
  15   1     0.00  -0.00  -0.45    -0.01   0.00   0.36    -0.05  -0.07   0.01
  16   1    -0.00   0.00  -0.44    -0.00  -0.00   0.43     0.13  -0.07  -0.01
  17   1    -0.00  -0.01  -0.01    -0.00  -0.00  -0.00    -0.12  -0.02   0.03
  18   1    -0.01   0.01  -0.01     0.00   0.00   0.00    -0.13  -0.01   0.03
                     19                     20                     21
                        a                      a                      a 
 Frequencies --   881.2826               904.8469              1002.6472
 Red. masses --     2.6853                 3.5658                 9.1728
 Frc consts  --     0.0000                 0.0000                 0.0000
 IR Inten    --     0.0818                 0.1957                 9.2868
 Raman Activ --     0.0000                 0.0000                 0.0000
 Depolar     --     0.0000                 0.0000                 0.0000
 Atom AN      X      Y      Z        X      Y      Z        X      Y      Z
   1   6     0.00  -0.00  -0.00     0.00  -0.00  -0.00    -0.19   0.12  -0.00
   2   8     0.00   0.01  -0.02     0.00   0.00  -0.01     0.07  -0.17   0.00
   3   6    -0.01  -0.00  -0.01    -0.00   0.00   0.01     0.20   0.02   0.00
   4   6     0.00   0.01  -0.11     0.00   0.00  -0.33     0.03  -0.29   0.00
   5   6    -0.00   0.01   0.04    -0.00  -0.00   0.26    -0.13   0.45  -0.00
   6   6     0.00   0.00   0.03     0.00  -0.00   0.02     0.06  -0.01  -0.00
   7   6    -0.00  -0.01   0.28     0.00  -0.00  -0.16    -0.00  -0.42  -0.00
   8   6     0.00  -0.01  -0.25     0.00  -0.00   0.17    -0.05   0.31   0.00
   9   7    -0.01  -0.00   0.01    -0.00  -0.00   0.00    -0.13  -0.05   0.00
  10   1    -0.00   0.01  -0.00     0.01  -0.01   0.00     0.03   0.01  -0.00
  11   1     0.00  -0.00   0.02     0.00  -0.00  -0.00    -0.09   0.12  -0.00
  12   1    -0.00  -0.01  -0.00    -0.01   0.01   0.00     0.03   0.01   0.00
  13   1     0.00   0.00   0.34    -0.00   0.00   0.63     0.20  -0.16  -0.00
  14   1     0.00   0.00  -0.21     0.01   0.01  -0.50     0.11   0.23   0.00
  15   1     0.01  -0.01  -0.61    -0.00   0.00   0.23     0.17  -0.18   0.00
  16   1    -0.00  -0.00   0.56     0.00   0.00  -0.25     0.13   0.18   0.00
  17   1    -0.00  -0.00  -0.00     0.00   0.00   0.00     0.00   0.01  -0.01
  18   1    -0.00  -0.00   0.00    -0.00   0.00  -0.01    -0.10   0.01   0.01
                     22                     23                     24
                        a                      a                      a 
 Frequencies --  1026.0308              1049.9420              1118.1081
 Red. masses --     3.9805                11.6725                 3.7000
 Frc consts  --     0.0000                 0.0000                 0.0000
 IR Inten    --     8.5134                94.2376                 3.3873
 Raman Activ --     0.0000                 0.0000                 0.0000
 Depolar     --     0.0000                 0.0000                 0.0000
 Atom AN      X      Y      Z        X      Y      Z        X      Y      Z
   1   6    -0.02  -0.03   0.00     0.42  -0.40   0.00     0.00   0.00  -0.42
   2   8    -0.01   0.01  -0.00    -0.45   0.43  -0.00    -0.00  -0.00   0.22
   3   6     0.01   0.07   0.00    -0.17  -0.01  -0.00     0.00  -0.00   0.00
   4   6    -0.07  -0.11  -0.00     0.01  -0.19  -0.00     0.00   0.00   0.00
   5   6     0.01  -0.12  -0.01     0.09   0.04  -0.00    -0.00  -0.00  -0.00
   6   6    -0.01   0.15   0.00     0.02  -0.01   0.00    -0.00  -0.00   0.00
   7   6     0.03  -0.22   0.01     0.05  -0.03  -0.00    -0.00   0.00   0.00
   8   6     0.10  -0.02  -0.00    -0.04   0.19   0.00    -0.00   0.00  -0.00
   9   7    -0.07   0.35   0.00    -0.03  -0.01  -0.01     0.00   0.00   0.00
  10   1     0.03  -0.01  -0.01    -0.01  -0.04  -0.01     0.35  -0.45   0.17
  11   1    -0.02   0.03  -0.00     0.13  -0.17   0.00    -0.00   0.00   0.22
  12   1     0.03  -0.01   0.01    -0.01  -0.04   0.01    -0.35   0.45   0.17
  13   1    -0.12   0.02   0.00     0.19  -0.14  -0.00     0.00  -0.00  -0.01
  14   1    -0.01  -0.05  -0.00     0.14   0.09   0.00    -0.00  -0.00   0.00
  15   1     0.07  -0.09   0.00     0.13  -0.05   0.00     0.00  -0.00  -0.00
  16   1     0.14   0.07  -0.00     0.08   0.12  -0.00    -0.00  -0.00   0.02
  17   1    -0.54  -0.23   0.13     0.00   0.00   0.00    -0.00  -0.00   0.00
  18   1     0.56  -0.10  -0.13    -0.02  -0.00   0.01     0.00   0.00  -0.00
                     25                     26                     27
                        a                      a                      a 
 Frequencies --  1129.9145              1153.5529              1184.5407
 Red. masses --     3.6155                 4.0481                 5.1162
 Frc consts  --     0.0000                 0.0000                 0.0000
 IR Inten    --    10.2517                10.4790               221.1746
 Raman Activ --     0.0000                 0.0000                 0.0000
 Depolar     --     0.0000                 0.0000                 0.0000
 Atom AN      X      Y      Z        X      Y      Z        X      Y      Z
   1   6    -0.10  -0.23  -0.00    -0.18  -0.32  -0.00     0.09  -0.10   0.00
   2   8    -0.01   0.18   0.00     0.08   0.28   0.00    -0.28   0.05  -0.00
   3   6     0.06   0.15   0.00     0.07   0.01   0.00     0.41  -0.05   0.00
   4   6    -0.05  -0.10   0.00     0.08   0.04  -0.00     0.02   0.10   0.00
   5   6     0.11  -0.03  -0.00    -0.09  -0.01   0.00    -0.02   0.20  -0.00
   6   6     0.01   0.11   0.00     0.01  -0.05   0.00     0.09  -0.03   0.00
   7   6    -0.10  -0.12   0.00    -0.01   0.06  -0.00     0.01  -0.11  -0.00
   8   6     0.10  -0.13  -0.00    -0.04  -0.01   0.00    -0.03  -0.02   0.00
   9   7    -0.00  -0.08  -0.00     0.00   0.02  -0.00    -0.04   0.00  -0.01
  10   1     0.19  -0.05  -0.03     0.28  -0.08  -0.04    -0.02  -0.01   0.01
  11   1    -0.17   0.26  -0.00    -0.27   0.43  -0.00    -0.03   0.07   0.00
  12   1     0.19  -0.05   0.03     0.28  -0.08   0.04    -0.02  -0.01  -0.01
  13   1    -0.42   0.15  -0.00     0.35  -0.13   0.00    -0.40   0.21  -0.00
  14   1     0.35   0.23   0.01    -0.31  -0.21  -0.01    -0.00   0.06   0.00
  15   1    -0.37   0.10  -0.01     0.04   0.00   0.00     0.29  -0.15   0.01
  16   1     0.22   0.10   0.00    -0.15  -0.11  -0.00    -0.47  -0.34  -0.00
  17   1     0.09   0.04  -0.02    -0.03  -0.01   0.01    -0.03  -0.01   0.02
  18   1    -0.11   0.01   0.03     0.02   0.00  -0.01    -0.01  -0.00   0.01
                     28                     29                     30
                        a                      a                      a 
 Frequencies --  1205.2076              1277.4572              1311.2032
 Red. masses --     5.6855                 3.5858                10.1383
 Frc consts  --     0.0000                 0.0000                 0.0000
 IR Inten    --   419.9917                 7.4165                19.4463
 Raman Activ --     0.0000                 0.0000                 0.0000
 Depolar     --     0.0000                 0.0000                 0.0000
 Atom AN      X      Y      Z        X      Y      Z        X      Y      Z
   1   6    -0.10  -0.00  -0.00    -0.05  -0.03   0.00     0.02  -0.04   0.00
   2   8     0.29   0.04   0.00     0.04   0.08   0.00    -0.14   0.00  -0.00
   3   6    -0.42  -0.01  -0.00    -0.04  -0.28  -0.00     0.32  -0.16   0.00
   4   6    -0.08   0.06  -0.00     0.13  -0.07   0.00    -0.02   0.24   0.00
   5   6     0.06  -0.06  -0.00     0.11   0.11   0.00    -0.11   0.05  -0.00
   6   6    -0.21  -0.02  -0.01    -0.01   0.21   0.00    -0.50  -0.21  -0.01
   7   6     0.10   0.08  -0.00    -0.09   0.10  -0.00    -0.37   0.04   0.00
   8   6    -0.13  -0.12  -0.00    -0.13  -0.07  -0.00     0.28  -0.03   0.00
   9   7     0.12   0.02   0.02    -0.00  -0.08   0.00     0.28   0.05   0.01
  10   1     0.09  -0.02  -0.00     0.05   0.00  -0.02    -0.03   0.02  -0.01
  11   1    -0.06   0.09  -0.00    -0.00  -0.02  -0.00    -0.01   0.03  -0.00
  12   1     0.09  -0.02   0.01     0.05   0.00   0.02    -0.03   0.02   0.01
  13   1    -0.01   0.01  -0.00    -0.36   0.16  -0.00     0.13   0.01   0.00
  14   1     0.40   0.26   0.01    -0.35  -0.25  -0.01     0.06   0.09   0.00
  15   1     0.52  -0.18   0.01     0.38  -0.14   0.01     0.06  -0.07   0.00
  16   1    -0.13  -0.09  -0.00     0.39   0.29   0.00     0.22   0.09   0.00
  17   1     0.09   0.04  -0.02     0.08   0.04  -0.02     0.17   0.08   0.01
  18   1     0.10  -0.01  -0.02    -0.10   0.02   0.02     0.24  -0.05  -0.01
                     31                     32                     33
                        a                      a                      a 
 Frequencies --  1343.1277              1390.7481              1427.4641
 Red. masses --    11.4511                 2.5672                 9.9631
 Frc consts  --     0.0000                 0.0000                 0.0000
 IR Inten    --    38.5735                 0.0404                32.7772
 Raman Activ --     0.0000                 0.0000                 0.0000
 Depolar     --     0.0000                 0.0000                 0.0000
 Atom AN      X      Y      Z        X      Y      Z        X      Y      Z
   1   6     0.06   0.01   0.00    -0.23   0.21  -0.00    -0.03  -0.06  -0.00
   2   8    -0.13  -0.05  -0.00    -0.12   0.08  -0.00     0.00   0.07   0.00
   3   6     0.13   0.42   0.00     0.07   0.01   0.00     0.07  -0.32  -0.00
   4   6     0.37  -0.08   0.00     0.06   0.01   0.00     0.30   0.15   0.00
   5   6    -0.35  -0.21   0.00    -0.05   0.01  -0.00    -0.37   0.02  -0.00
   6   6    -0.25   0.40  -0.00    -0.05  -0.02  -0.00     0.05  -0.35  -0.00
   7   6     0.20  -0.17  -0.00     0.01  -0.02   0.00     0.37   0.13   0.00
   8   6    -0.19  -0.28  -0.00     0.01   0.01   0.00    -0.39   0.02  -0.00
   9   7     0.11  -0.04   0.00     0.02   0.01   0.00    -0.02   0.10   0.00
  10   1    -0.05   0.02  -0.00     0.43  -0.27   0.13     0.02   0.08  -0.06
  11   1     0.02  -0.01   0.00     0.22  -0.51   0.00    -0.01   0.01  -0.00
  12   1    -0.05   0.02   0.00     0.44  -0.27  -0.13     0.02   0.08   0.06
  13   1     0.07  -0.01  -0.00    -0.00   0.01  -0.00    -0.09   0.12  -0.00
  14   1    -0.04  -0.01   0.00    -0.00   0.01   0.00     0.12   0.17   0.00
  15   1     0.07  -0.06  -0.00    -0.03   0.01  -0.00    -0.14   0.14  -0.00
  16   1     0.05  -0.01   0.00    -0.05  -0.03  -0.00     0.11   0.17   0.00
  17   1     0.16   0.08  -0.02     0.01   0.01   0.00    -0.10  -0.04   0.02
  18   1    -0.00  -0.00   0.03     0.03  -0.01  -0.00     0.10  -0.01  -0.02
                     34                     35                     36
                        a                      a                      a 
 Frequencies --  1462.4177              1467.8738              1477.3743
 Red. masses --     1.5468                 4.0420                 1.7765
 Frc consts  --     0.0000                 0.0000                 0.0000
 IR Inten    --     5.3717                15.2905                37.7008
 Raman Activ --     0.0000                 0.0000                 0.0000
 Depolar     --     0.0000                 0.0000                 0.0000
 Atom AN      X      Y      Z        X      Y      Z        X      Y      Z
   1   6     0.00  -0.00  -0.22    -0.04  -0.02  -0.00    -0.14  -0.15  -0.00
   2   8     0.00  -0.00  -0.03    -0.05  -0.02  -0.00    -0.02  -0.06   0.00
   3   6    -0.00  -0.00  -0.00     0.20   0.03   0.00     0.01   0.05  -0.00
   4   6     0.00  -0.00  -0.00    -0.13   0.14  -0.00    -0.06  -0.02   0.00
   5   6     0.00   0.00   0.00    -0.11  -0.17  -0.00     0.06   0.00   0.00
   6   6    -0.00  -0.00  -0.00     0.14   0.06   0.04     0.03   0.04  -0.01
   7   6     0.00  -0.00   0.00    -0.17   0.10  -0.00    -0.03  -0.02   0.00
   8   6     0.00   0.00   0.00    -0.04  -0.14  -0.00     0.04   0.01   0.00
   9   7    -0.00  -0.00  -0.00     0.23   0.02   0.03    -0.08  -0.02  -0.01
  10   1    -0.46  -0.05   0.09     0.05   0.08  -0.06     0.22   0.48  -0.36
  11   1    -0.00   0.00   0.72     0.03  -0.07   0.01     0.11  -0.27  -0.00
  12   1     0.46   0.05   0.09     0.06   0.08   0.06     0.21   0.48   0.36
  13   1    -0.00   0.00   0.00     0.14  -0.04   0.00     0.01  -0.02  -0.00
  14   1    -0.00  -0.00   0.00     0.15   0.08   0.00    -0.01  -0.02  -0.00
  15   1    -0.00   0.00   0.00     0.17  -0.06   0.00     0.00  -0.01  -0.00
  16   1    -0.00  -0.00  -0.02     0.12   0.05   0.00    -0.07  -0.06  -0.00
  17   1     0.00   0.00   0.00    -0.40  -0.35  -0.13     0.11   0.09   0.04
  18   1     0.00  -0.00   0.00    -0.49   0.24  -0.12     0.11  -0.06   0.04
                     37                     38                     39
                        a                      a                      a 
 Frequencies --  1499.3527              1576.0666              1624.9483
 Red. masses --     8.7625                11.6052                11.5661
 Frc consts  --     0.0000                 0.0000                 0.0000
 IR Inten    --   578.3846                18.9598                32.8770
 Raman Activ --     0.0000                 0.0000                 0.0000
 Depolar     --     0.0000                 0.0000                 0.0000
 Atom AN      X      Y      Z        X      Y      Z        X      Y      Z
   1   6     0.00  -0.03   0.00     0.02   0.02   0.00    -0.00   0.00   0.00
   2   8     0.04   0.00   0.00    -0.03  -0.05  -0.00    -0.04  -0.01  -0.00
   3   6    -0.30  -0.01  -0.00    -0.01   0.52   0.00     0.25   0.04   0.00
   4   6     0.30  -0.18  -0.00     0.14  -0.25   0.00    -0.44   0.06  -0.00
   5   6     0.05   0.21  -0.00     0.10   0.28   0.00     0.43   0.18   0.00
   6   6    -0.44  -0.11   0.02     0.09  -0.51  -0.00    -0.34  -0.02   0.00
   7   6     0.11  -0.14  -0.00    -0.19   0.28  -0.00     0.43  -0.09   0.00
   8   6     0.20   0.20  -0.00    -0.11  -0.33  -0.00    -0.37  -0.16  -0.00
   9   7     0.32   0.05   0.04    -0.01   0.06  -0.00     0.10   0.01   0.01
  10   1     0.01   0.07  -0.05    -0.01   0.00   0.00     0.01  -0.00   0.00
  11   1     0.01  -0.01  -0.00     0.01  -0.02   0.00     0.00  -0.01  -0.00
  12   1     0.01   0.07   0.05    -0.01   0.00  -0.00     0.01  -0.00  -0.00
  13   1    -0.18   0.06   0.00    -0.05  -0.02  -0.00     0.07  -0.07   0.00
  14   1    -0.15  -0.06  -0.00    -0.07  -0.00  -0.00    -0.07  -0.08  -0.00
  15   1    -0.16   0.03  -0.00     0.09   0.01   0.00    -0.09   0.05  -0.00
  16   1    -0.17  -0.10  -0.00     0.11   0.01   0.00     0.06   0.06   0.00
  17   1    -0.19  -0.21  -0.11    -0.06  -0.03   0.02    -0.01  -0.03  -0.03
  18   1    -0.21   0.15  -0.11     0.07  -0.01  -0.01    -0.02   0.03  -0.03
                     40                     41                     42
                        a                      a                      a 
 Frequencies --  2929.8667              2945.1048              3029.5816
 Red. masses --     1.9499                 1.4407                 1.6928
 Frc consts  --     0.0000                 0.0000                 0.0000
 IR Inten    --    58.4100                53.5599                23.0379
 Raman Activ --     0.0000                 0.0000                 0.0000
 Depolar     --     0.0000                 0.0000                 0.0000
 Atom AN      X      Y      Z        X      Y      Z        X      Y      Z
   1   6    -0.00  -0.00  -0.29    -0.06  -0.19   0.01     0.23   0.11   0.00
   2   8     0.00  -0.00  -0.01     0.01  -0.02   0.00     0.01  -0.00   0.00
   3   6    -0.00  -0.00   0.00    -0.00  -0.00  -0.00    -0.00   0.00   0.00
   4   6     0.00   0.00  -0.00     0.00   0.00   0.00    -0.00  -0.00  -0.00
   5   6     0.00  -0.00  -0.00     0.00  -0.00   0.00     0.00  -0.00   0.00
   6   6     0.00   0.00  -0.00    -0.00   0.00   0.00    -0.00  -0.00   0.00
   7   6     0.00   0.00  -0.00     0.00   0.00   0.00     0.00   0.00   0.00
   8   6    -0.00   0.00   0.00    -0.00   0.00  -0.00     0.00  -0.00   0.00
   9   7     0.00  -0.00   0.00     0.00   0.00  -0.00     0.00  -0.00  -0.00
  10   1     0.09   0.41   0.55     0.07   0.35   0.57     0.03   0.03   0.01
  11   1     0.00  -0.00  -0.05     0.02  -0.01   0.00    -0.88  -0.41  -0.00
  12   1    -0.09  -0.39   0.52     0.08   0.37  -0.60     0.03   0.03  -0.01
  13   1    -0.00  -0.00  -0.00    -0.00  -0.00  -0.00     0.00   0.00   0.00
  14   1    -0.00   0.00  -0.00    -0.00   0.00   0.00    -0.00   0.00  -0.00
  15   1    -0.00  -0.00   0.00    -0.00  -0.00   0.00    -0.00  -0.00  -0.00
  16   1     0.00  -0.00   0.00     0.01  -0.01   0.00    -0.00   0.00  -0.00
  17   1    -0.00   0.00   0.00     0.00  -0.00   0.00     0.00  -0.00   0.00
  18   1     0.00  -0.00  -0.00     0.00   0.00   0.00    -0.00   0.00   0.00
                     43                     44                     45
                        a                      a                      a 
 Frequencies --  3073.3339              3078.2360              3096.7169
 Red. masses --     1.8021                 1.7870                 1.8575
 Frc consts  --     0.0000                 0.0000                 0.0000
 IR Inten    --    78.7028                83.2785               154.7370
 Raman Activ --     0.0000                 0.0000                 0.0000
 Depolar     --     0.0000                 0.0000                 0.0000
 Atom AN      X      Y      Z        X      Y      Z        X      Y      Z
   1   6    -0.00  -0.00  -0.00     0.00  -0.00   0.00     0.00   0.00   0.00
   2   8     0.00   0.00   0.00    -0.00   0.00  -0.00    -0.00   0.00  -0.00
   3   6     0.00  -0.01  -0.00    -0.00  -0.00  -0.00     0.01   0.00   0.00
   4   6    -0.01  -0.02  -0.00    -0.03  -0.07  -0.00     0.10   0.22   0.00
   5   6    -0.07   0.09  -0.00    -0.13   0.18  -0.00    -0.05   0.07  -0.00
   6   6     0.00   0.00   0.00    -0.01  -0.00  -0.00    -0.00  -0.00   0.00
   7   6     0.09   0.22   0.00    -0.04  -0.11  -0.00     0.01   0.02   0.00
   8   6     0.03  -0.04  -0.00    -0.02   0.03   0.00    -0.07   0.09  -0.00
   9   7     0.00  -0.00  -0.00     0.00  -0.00   0.00     0.00   0.00  -0.00
  10   1     0.00   0.00   0.00     0.00   0.00   0.00    -0.00  -0.00  -0.00
  11   1     0.00   0.00   0.00    -0.00  -0.00  -0.00    -0.00  -0.00  -0.00
  12   1     0.00   0.00  -0.00     0.00   0.00  -0.00    -0.00  -0.00   0.00
  13   1     0.04   0.10   0.00     0.12   0.28   0.00    -0.33  -0.76  -0.00
  14   1     0.25  -0.34  -0.00     0.48  -0.65  -0.00     0.16  -0.22  -0.00
  15   1    -0.32  -0.77  -0.00     0.15   0.38   0.00    -0.02  -0.05  -0.00
  16   1    -0.12   0.16   0.00     0.08  -0.11  -0.00     0.23  -0.32  -0.00
  17   1    -0.00   0.00  -0.00     0.00   0.00  -0.00     0.00   0.00   0.00
  18   1    -0.00   0.00   0.00     0.00   0.00   0.00     0.00   0.00   0.00
                     46                     47                     48
                        a                      a                      a 
 Frequencies --  3102.3623              3466.3695              3521.4322
 Red. masses --     1.8543                 1.4577                 2.1580
 Frc consts  --     0.0000                 0.0000                 0.0000
 IR Inten    --    31.9645                14.4021                12.6830
 Raman Activ --     0.0000                 0.0000                 0.0000
 Depolar     --     0.0000                 0.0000                 0.0000
 Atom AN      X      Y      Z        X      Y      Z        X      Y      Z
   1   6     0.00   0.00   0.00    -0.00   0.00  -0.00    -0.00  -0.00   0.00
   2   8     0.00   0.00   0.00     0.00   0.00  -0.00     0.00   0.00  -0.00
   3   6    -0.01  -0.00  -0.00    -0.00  -0.00   0.00    -0.00   0.00   0.00
   4   6    -0.04  -0.10  -0.00    -0.00  -0.00   0.00     0.00  -0.00   0.00
   5   6     0.03  -0.04   0.00     0.00   0.00  -0.00    -0.00   0.00  -0.00
   6   6     0.01  -0.00  -0.00    -0.00  -0.00  -0.00     0.00  -0.01  -0.00
   7   6     0.03   0.07   0.00     0.00  -0.00  -0.00     0.00   0.00   0.00
   8   6    -0.14   0.20   0.00    -0.00   0.00   0.00    -0.00  -0.00  -0.00
   9   7    -0.00  -0.00   0.00    -0.16  -0.02  -0.09     0.04  -0.30  -0.00
  10   1    -0.00  -0.01  -0.01     0.00  -0.00  -0.00    -0.00   0.00   0.00
  11   1    -0.00  -0.00  -0.00     0.00   0.00  -0.00     0.00   0.00   0.00
  12   1    -0.00  -0.01   0.01    -0.00  -0.00   0.00     0.00   0.00  -0.00
  13   1     0.15   0.34   0.00     0.00   0.00  -0.00    -0.00  -0.00  -0.00
  14   1    -0.09   0.13  -0.00    -0.00   0.00  -0.00    -0.00   0.00   0.00
  15   1    -0.09  -0.21  -0.00    -0.00  -0.00  -0.00    -0.00   0.00  -0.00
  16   1     0.49  -0.68  -0.00     0.00  -0.00  -0.00     0.00   0.00   0.00
  17   1    -0.00   0.00  -0.00     0.37  -0.56   0.18    -0.38   0.52  -0.20
  18   1    -0.00  -0.00  -0.00     0.23   0.63   0.18     0.24   0.60   0.20
