18
 energy: -26.553968170056 gnorm: 0.023253828368 xtb: 6.7.1 (edcfbbe)
C           -3.20036490954947        0.57756194300111       -0.00157673587905
O           -2.30739682826217       -0.54207984598280        0.00745436080825
C           -0.95456987691027       -0.25834587349374        0.00116553230632
C           -0.09803910845927       -1.36183447340675       -0.00144090372353
C            1.27723373041537       -1.18408672704425       -0.00948951267044
C            1.83774125070322        0.10248876825717       -0.01524665426910
C            0.96949539125827        1.19791497586190       -0.00661160894402
C           -0.41506051063995        1.02702417751039        0.00058792119760
N            3.22496350390629        0.27868435211093       -0.09587248356929
H           -3.06695734599897        1.19839941644107        0.89244236117329
H           -4.20672665584808        0.15649669455852       -0.00394870952639
H           -3.05880887438600        1.18957676392864       -0.90041636974503
H           -0.52105017818266       -2.36162934395464        0.00551705948315
H            1.92993206826181       -2.05284022393375       -0.01137332698703
H            1.37815184500723        2.20477695666897       -0.00617664051521
H           -1.04961623042784        1.90505008584016        0.00904362105336
H            3.74869994490494       -0.49297932578892        0.29497783501453
H            3.53951750151467        1.15763184851346        0.29264186154521
18
 energy: -26.554983854646 gnorm: 0.010446190576 xtb: 6.7.1 (edcfbbe)
C           -3.19995519130313        0.57282446891484       -0.00168335326489
O           -2.30063319228002       -0.52723301270743        0.00661370574084
C           -0.94992297437797       -0.24838519811855       -0.00041762419663
C           -0.09721790127458       -1.35093396894848       -0.00277756704804
C            1.27155661396862       -1.17912879264216       -0.00511033652862
C            1.83287531326959        0.10075795453736       -0.00423906484885
C            0.97141187885535        1.19463513760651       -0.00259854375413
C           -0.40431653312908        1.02868724149491       -0.00104554540140
N            3.21249276053796        0.27467439859354       -0.08667778555572
H           -3.07011657757266        1.18921970491519        0.89223627444898
H           -4.19588095743353        0.13407611582331       -0.00379536338113
H           -3.06234591630995        1.18121376500430       -0.89988241425286
H           -0.52551415019797       -2.34265989659944        0.00204304340158
H            1.91896637645700       -2.04522691949051       -0.00911170345437
H            1.38039330708784        2.19578869843042       -0.00433539957867
H           -1.03207627039554        1.90570789397740        0.00549849601522
H            3.74309618700029       -0.50094972098400        0.28465712726574
H            3.53433194440494        1.15874229928026        0.28230366114559
18
 energy: -26.555210498840 gnorm: 0.005392558727 xtb: 6.7.1 (edcfbbe)
C           -3.19970682619459        0.56762171240134       -0.00219215868056
O           -2.29696305921036       -0.52009759820239        0.00531128160664
C           -0.94834134054545       -0.24219902600530       -0.00060938925466
C           -0.09737128814386       -1.34513334302012       -0.00284381282303
C            1.26919584990922       -1.17728456834947       -0.00191727550014
C            1.83277559883076        0.10002423047950        0.00120193520062
C            0.97414795335732        1.19503585727783        0.00028481889897
C           -0.39879598483002        1.03169019266256       -0.00086519066935
N            3.20692832113744        0.27144598981243       -0.07618754386394
H           -3.07738720632112        1.18529946189221        0.89097675622732
H           -4.18949787421537        0.11760606375856       -0.00425568041722
H           -3.07007687277697        1.17863106996668       -0.89881319876057
H           -0.53199289562924       -2.33179466264217       -0.00166119788506
H            1.91356352957029       -2.04284959711563       -0.00440085223758
H            1.38484441595739        2.19325911343572       -0.00011666017401
H           -1.02450929281264        1.90871601847279        0.00178552894682
H            3.74420771015822       -0.50842906763777        0.27388820079733
H            3.53612397906613        1.16026832190070        0.27209204534106
18
 energy: -26.555288337857 gnorm: 0.003438127872 xtb: 6.7.1 (edcfbbe)
C           -3.20148385514356        0.56360124235474       -0.00294046771316
O           -2.29562724013276       -0.51757592618044        0.00301393208477
C           -0.94793907172094       -0.23865694772012       -0.00166394893921
C           -0.09763467038290       -1.34248033271639       -0.00277130841456
C            1.26890749500678       -1.17696919550210        0.00115844921087
C            1.83470422103588        0.09995078597306        0.00542972422959
C            0.97662074223833        1.19653406097960        0.00330351132472
C           -0.39657695477535        1.03464286316084       -0.00079459011336
N            3.20583086641334        0.26925170544072       -0.06765324126798
H           -3.08439293485600        1.18345948040520        0.89008078355832
H           -4.18907047883002        0.10850060755948       -0.00484490400923
H           -3.07815490637199        1.17853631692558       -0.89840057575813
H           -0.53693605306243       -2.32699977079677       -0.00327172933152
H            1.91198950076675       -2.04331209984000       -0.00031825196228
H            1.38919635356471        2.19385308859120        0.00366781462588
H           -1.02236629149186        1.91206964986984        0.00001055092601
H            3.74851925477107       -0.51374822715400        0.26422743848031
H            3.54155874027807        1.16115286773703        0.26344441982159
18
 energy: -26.555323719642 gnorm: 0.002167277781 xtb: 6.7.1 (edcfbbe)
C           -3.20373863414523        0.56106261543486       -0.00413858699646
O           -2.29551357162978       -0.51729379309511       -0.00006628746663
C           -0.94782084980934       -0.23664688531869       -0.00223698874896
C           -0.09778002381294       -1.34127902375197       -0.00214217320461
C            1.26921383966757       -1.17702912262195        0.00393174872847
C            1.83660234363684        0.10025813579339        0.00844732305277
C            0.97815054902246        1.19789700141103        0.00619497762196
C           -0.39601561592718        1.03688944348205       -0.00005321546793
N            3.20599682616005        0.26785909806601       -0.06068849976962
H           -3.08928092361532        1.18191702949965        0.88945883542336
H           -4.19104675171283        0.10438119387076       -0.00602902385010
H           -3.08421874772417        1.17933120340038       -0.89874290629714
H           -0.53980379554061       -2.32519323463635       -0.00353321317571
H            1.91189696769236       -2.04437065998321        0.00371916178511
H            1.39218256061939        2.19517648953239        0.00768142779731
H           -1.02248624987637        1.91464270509757       -0.00029815065730
H            3.75313544660232       -0.51753000574823        0.25479659651191
H            3.54767134769990        1.16173797865487        0.25537658146618
18
 energy: -26.555331948525 gnorm: 0.001199477066 xtb: 6.7.1 (edcfbbe)
C           -3.20440848765683        0.56104050646278       -0.00514637010202
O           -2.29611231900076       -0.51813444801883       -0.00219936744773
C           -0.94790152347803       -0.23664656328745       -0.00225972506595
C           -0.09781864131038       -1.34141646765521       -0.00131964425352
C            1.26933805430680       -1.17707712843196        0.00547265093466
C            1.83688374814196        0.10058079295622        0.00979983031199
C            0.97796040315519        1.19816254000179        0.00792955879982
C           -0.39659498301704        1.03716444116405        0.00087748399756
N            3.20580700592099        0.26776016685919       -0.05828723800723
H           -3.08934524088711        1.18107594436144        0.88914084671433
H           -4.19232636603275        0.10526103248081       -0.00725369820837
H           -3.08473186600961        1.18003732116890       -0.89942272612056
H           -0.53969029995448       -2.32570102809622       -0.00276724439351
H            1.91222948511996       -2.04466098024016        0.00570449815705
H            1.39212264643132        2.19571888664032        0.01001202144547
H           -1.02341404408681        1.91490383784102        0.00075147516072
H            3.75489352443198       -0.51847130417228        0.24958794077470
H            3.55025362123273        1.16221261905308        0.25105731405520
18
 energy: -26.555335089855 gnorm: 0.000403271667 xtb: 6.7.1 (edcfbbe)
C           -3.20418757769501        0.56219890290888       -0.00657561110661
O           -2.29713337034793       -0.51946999751006       -0.00459898474825
C           -0.94813258890081       -0.23764268514934       -0.00183635491788
C           -0.09786607358073       -1.34218223602695        0.00002700161397
C            1.26928030115372       -1.17711382667248        0.00724384371392
C            1.83634041265195        0.10093483248233        0.01119066149132
C            0.97685130787698        1.19793277667166        0.01012347781347
C           -0.39774526335493        1.03641221850224        0.00250699350051
N            3.20480677038901        0.26827418536113       -0.05726086143225
H           -3.08714383449536        1.18028726705676        0.88859085008198
H           -4.19304540623094        0.10838760732333       -0.00929827962406
H           -3.08238127691918        1.18103857426182       -0.90048365705266
H           -0.53826489734613       -2.32721262808271       -0.00138592434480
H            1.91263545766457       -2.04448545864708        0.00781595683526
H            1.39037137033345        2.19588933744836        0.01288043254627
H           -1.02469699968567        1.91397761077725        0.00281300730783
H            3.75580720339439       -0.51861372012017        0.24364621644857
H            3.55164918239974        1.16319740850250        0.24627883862604
18
 energy: -26.555335581244 gnorm: 0.000135910110 xtb: 6.7.1 (edcfbbe)
C           -3.20371461878717        0.56261551837102       -0.00674154135162
O           -2.29718070749617       -0.51942406676974       -0.00432546083991
C           -0.94822191604226       -0.23808092511572       -0.00155002589686
C           -0.09787782004669       -1.34243290850894        0.00025962378326
C            1.26920517079047       -1.17713856650522        0.00728107950304
C            1.83604335865835        0.10084765450254        0.01109108842822
C            0.97657159195675        1.19771482098986        0.01029521902296
C           -0.39782423412798        1.03592148217971        0.00286752812904
N            3.20444288947910        0.26853712745751       -0.05829657455335
H           -3.08659224553409        1.18052532200519        0.88836156411275
H           -4.19255318903371        0.10900467138762       -0.00981853408538
H           -3.08110897959259        1.18114238172592       -0.90060874133272
H           -0.53786436374736       -2.32751615541685       -0.00116243148349
H            1.91260290662517       -2.04429772170235        0.00779798501383
H            1.38971072975956        2.19567741856260        0.01314049108458
H           -1.02461028096358        1.91346294145669        0.00331647823011
H            3.75536987949061       -0.51821250692684        0.24349625800090
H            3.55074654591872        1.16346368139445        0.24627360098726
18
 energy: -26.555335666224 gnorm: 0.000065637442 xtb: 6.7.1 (edcfbbe)
C           -3.20358164460235        0.56276408175815       -0.00699498243655
O           -2.29724200922070       -0.51941826987058       -0.00418418473585
C           -0.94830413366863       -0.23830826912001       -0.00126624727135
C           -0.09789237007871       -1.34257799289655        0.00053329891384
C            1.26920586191319       -1.17717907631936        0.00741782371320
C            1.83600888862202        0.10079358345242        0.01105759166985
C            0.97648068628607        1.19764490380426        0.01058639285803
C           -0.39787282199590        1.03571194685681        0.00330068604192
N            3.20434943845253        0.26865520858412       -0.05887278949320
H           -3.08674510476524        1.18065463613719        0.88814910252978
H           -4.19247117313292        0.10930950892684       -0.01053458772742
H           -3.08044121595002        1.18129114699302       -0.90078844814620
H           -0.53771897158391       -2.32772499555651       -0.00082095306720
H            1.91262298504586       -2.04430482317235        0.00795539882986
H            1.38945403723038        2.19564745053813        0.01357042262278
H           -1.02462505790880        1.91326779598758        0.00393871701977
H            3.75543561887011       -0.51805630157374        0.24280700954699
H            3.55048170379414        1.16363963455807        0.24582335588437
