
                                 *****************
                                 * O   R   C   A *
                                 *****************

                                            #,                                       
                                            ###                                      
                                            ####                                     
                                            #####                                    
                                            ######                                   
                                           ########,                                 
                                     ,,################,,,,,                         
                               ,,#################################,,                 
                          ,,##########################################,,             
                       ,#########################################, ''#####,          
                    ,#############################################,,   '####,        
                  ,##################################################,,,,####,       
                ,###########''''           ''''###############################       
              ,#####''   ,,,,##########,,,,          '''####'''          '####       
            ,##' ,,,,###########################,,,                        '##       
           ' ,,###''''                  '''############,,,                           
         ,,##''                                '''############,,,,        ,,,,,,###''
      ,#''                                            '''#######################'''  
     '                                                          ''''####''''         
             ,#######,   #######,   ,#######,      ##                                
            ,#'     '#,  ##    ##  ,#'     '#,    #''#        ,####,   ,####,        
            ##       ##  ##   ,#'  ##            #'  '#       #'       #'  '#        
            ##       ##  #######   ##           ,######,      #####,   #    #        
            '#,     ,#'  ##    ##  '#,     ,#' ,#      #,     #,   #   #,  ,#        
             '#######'   ##     ##  '#######'  #'      '#     '####' # '####'        



                #########################################################
                #                        -***-                          #
                #          Department of theory and spectroscopy        #
                #                                                       #
                #                      Frank Neese                      #
                #                                                       #
                #     Directorship, Architecture, Infrastructure        #
                #                    SHARK, DRIVERS                     #
                #        Core code/Algorithms in most modules           #
                #                                                       #
                #        Max Planck Institute fuer Kohlenforschung      #
                #                Kaiser Wilhelm Platz 1                 #
                #                 D-45470 Muelheim/Ruhr                 #
                #                      Germany                          #
                #                                                       #
                #                  All rights reserved                  #
                #                        -***-                          #
                #########################################################


                         Program Version 6.0.0  -   RELEASE  -


 With contributions from (in alphabetic order):
   Daniel Aravena         : Magnetic Suceptibility
   Michael Atanasov       : Ab Initio Ligand Field Theory (pilot matlab implementation)
   Alexander A. Auer      : GIAO ZORA, VPT2 properties, NMR spectrum
   Ute Becker             : All parallelization in ORCA, NUMFREQ, NUMCALC
   Giovanni Bistoni       : ED, misc. LED, open-shell LED, HFLD
   Martin Brehm           : Molecular dynamics
   Dmytro Bykov           : pre 5.0 version of the SCF Hessian
   Marcos Casanova-Páez   : Triplet and SCS-CIS(D). UHF-(DLPNO)-IP/EA/STEOM-CCSD. UHF-CVS-IP/STEOM-CCSD
   Vijay G. Chilkuri      : MRCI spin determinant printing, contributions to CSF-ICE
   Pauline Colinet        : FMM embedding
   Dipayan Datta          : RHF DLPNO-CCSD density
   Achintya Kumar Dutta   : EOM-CC, STEOM-CC
   Nicolas Foglia         : Exact transition moments, OPA infrastructure, MCD improvements
   Dmitry Ganyushin       : Spin-Orbit,Spin-Spin,Magnetic field MRCI
   Miquel Garcia          : C-PCM and meta-GGA Hessian, CCSD/C-PCM, Gaussian charge scheme
   Tiago L. C. Gouveia    : GS-ROHF, GS-ROCIS
   Yang Guo               : DLPNO-NEVPT2, F12-NEVPT2, CIM, IAO-localization
   Andreas Hansen         : Spin unrestricted coupled pair/coupled cluster methods
   Ingolf Harden          : AUTO-CI MPn and infrastructure 
   Benjamin Helmich-Paris : MC-RPA, TRAH-(SCF,CASSCF), AVAS, COSX integrals, SCF dyn. polar.
   Lee Huntington         : MR-EOM, pCC
   Robert Izsak           : Overlap fitted RIJCOSX, COSX-SCS-MP3, EOM
   Riya Kayal             : Wick's Theorem for AUTO-CI, AUTO-CI UHF-CCSDT
   Emily Kempfer          : AUTO-CI, RHF CISDT and CCSDT
   Christian Kollmar      : KDIIS, OOCD, Brueckner-CCSD(T), CCSD density, CASPT2, CASPT2-K, improved NEVPT2
   Axel Koslowski         : Symmetry handling
   Simone Kossmann        : Meta GGA functionals, TD-DFT gradient, OOMP2, (MP2 Hessian; deprecated post 5.0)
   Lucas Lang             : DCDCAS
   Marvin Lechner         : AUTO-CI (C++ implementation), FIC-MRCC
   Spencer Leger          : CASSCF response
   Dagmar Lenk            : GEPOL surface, SMD, ORCA-2-JSON
   Dimitrios Liakos       : Extrapolation schemes; Compound Job, initial MDCI parallelization
   Dimitrios Manganas     : Further ROCIS development; embedding schemes. LFT, Crystal Embedding
   Dimitrios Pantazis     : SARC Basis sets
   Anastasios Papadopoulos: AUTO-CI, single reference methods and gradients
   Taras Petrenko         : pre 6.0 DFT Hessian and TD-DFT gradient, (ASA, deprecated), ECA, 1-Electron XAS/XES, NRVS
   Peter Pinski           : DLPNO-MP2, DLPNO-MP2 Gradient
   Christoph Reimann      : Effective Core Potentials
   Marius Retegan         : Local ZFS, SOC
   Christoph Riplinger    : Optimizer, TS searches, QM/MM, DLPNO-CCSD(T), (RO)-DLPNO pert. Triples
   Michael Roemelt        : Original ROCIS implementation
   Masaaki Saitow         : Open-shell DLPNO-CCSD energy and density
   Barbara Sandhoefer     : DKH picture change effects
   Kantharuban Sivalingam : CASSCF convergence/infrastructure, NEVPT2 and variants, FIC-MRCI
   Bernardo de Souza      : ESD, SOC TD-DFT
   Georgi Stoychev        : AutoAux, RI-MP2 NMR, DLPNO-MP2 response, X2C
   Van Anh Tran           : RI-MP2 g-tensors
   Willem Van den Heuvel  : Paramagnetic NMR
   Zikuan Wang            : NOTCH, Electric field optimization 
   Frank Wennmohs         : Technical directorship and infrastructure
   Hang Xu                : AUTO-CI-Response properties 


 We gratefully acknowledge several colleagues who have allowed us to
 interface, adapt or use parts of their codes:
   Stefan Grimme, W. Hujo, H. Kruse, P. Pracht,  : VdW corrections, initial TS optimization,
                  C. Bannwarth, S. Ehlert,         DFT functionals, gCP, sTDA/sTD-DF
                  L. Wittmann, M. Mueller
   Ed Valeev, F. Pavosevic, A. Kumar             : LibInt (2-el integral package), F12 methods
   Garnet Chan, S. Sharma, J. Yang, R. Olivares  : DMRG
   Ulf Ekstrom                                   : XCFun DFT Library
   Mihaly Kallay                                 : mrcc  (arbitrary order and MRCC methods)
   Frank Weinhold                                : gennbo (NPA and NBO analysis)
   Simon Mueller                                 : openCOSMO-RS
   Christopher J. Cramer and Donald G. Truhlar   : smd solvation model
   Lars Goerigk                                  : TD-DFT with DH, B97 family of functionals
   V. Asgeirsson, H. Jonsson                     : NEB implementation
   FAccTs GmbH                                   : IRC, NEB, NEB-TS, DLPNO-Multilevel, CI-OPT
                                                   MM, QMMM, 2- and 3-layer-ONIOM, Crystal-QMMM,
                                                   LR-CPCM, SF, NACMEs, symmetry and pop. for TD-DFT,
                                                   nearIR, NL-DFT gradient (VV10), updates on ESD,
                                                   ML-optimized integration grids, MBIS, APM,
                                                   GOAT, DOCKER, SOLVATOR, interface openCOSMO-RS
   S Lehtola, MJT Oliveira, MAL Marques          : LibXC Library
   Liviu Ungur et al                             : ANISO software


 Your calculation uses the libint2 library for the computation of 2-el integrals
 For citations please refer to: http://libint.valeyev.net

 Your ORCA version has been built with support for libXC version: 6.2.2
 For citations please refer to: https://libxc.gitlab.io

 This ORCA versions uses:
   CBLAS   interface :  Fast vector & matrix operations
   LAPACKE interface :  Fast linear algebra routines
   SCALAPACK package :  Parallel linear algebra routines
   Shared memory     :  Shared parallel matrices
   BLAS/LAPACK       :  OpenBLAS 0.3.27  USE64BITINT DYNAMIC_ARCH NO_AFFINITY SkylakeX SINGLE_THREADED
        Core in use  :  SkylakeX
   Copyright (c) 2011-2014, The OpenBLAS Project


Your calculation utilizes the geometrical counterpoise correction gCP
Please cite in your paper:
H.Kruse, S. Grimme J.Chem.Phys., 136, (2012), 154101 
   

Your calculation utilizes the atom-pairwise dispersion correction
based on EEQ partial charges (D4)


================================================================================

----- Orbital basis set information -----
Your calculation utilizes the basis: def2-mTZVPP
   Stefan Grimme, Andreas Hansen, Sebastian Ehlert, and Jan-Michael Mewes 
   J. Chem. Phys. 154, 064103 (2021). DOI: 10.1063/5.0040021

----- AuxJ basis set information -----
Your calculation utilizes the auxiliary basis: def2/J
   F. Weigend, Phys. Chem. Chem. Phys. 8, 1057 (2006).

================================================================================
                                        WARNINGS
                       Please study these warnings very carefully!
================================================================================

Using LibXC functional ID 497 : Re-regularized SCAN exchange by Furness et al
[ 1]  J. W. Furness, A. D. Kaplan, J. Ning, J. P. Perdew, and J. Sun.,  J. Phys. Chem. Lett. 11, 8208-8215 (2020)
[ 2]  J. W. Furness, A. D. Kaplan, J. Ning, J. P. Perdew, and J. Sun.,  J. Phys. Chem. Lett. 11, 9248-9248 (2020)
Using LibXC functional ID 498 : Re-regularized SCAN correlation by Furness et al
[ 1]  J. W. Furness, A. D. Kaplan, J. Ning, J. P. Perdew, and J. Sun.,  J. Phys. Chem. Lett. 11, 8208-8215 (2020)
[ 2]  J. W. Furness, A. D. Kaplan, J. Ning, J. P. Perdew, and J. Sun.,  J. Phys. Chem. Lett. 11, 9248-9248 (2020)
Using LibXC functional ID 497 : Re-regularized SCAN exchange by Furness et al
[ 1]  J. W. Furness, A. D. Kaplan, J. Ning, J. P. Perdew, and J. Sun.,  J. Phys. Chem. Lett. 11, 8208-8215 (2020)
[ 2]  J. W. Furness, A. D. Kaplan, J. Ning, J. P. Perdew, and J. Sun.,  J. Phys. Chem. Lett. 11, 9248-9248 (2020)
Using LibXC functional ID 498 : Re-regularized SCAN correlation by Furness et al
[ 1]  J. W. Furness, A. D. Kaplan, J. Ning, J. P. Perdew, and J. Sun.,  J. Phys. Chem. Lett. 11, 8208-8215 (2020)
[ 2]  J. W. Furness, A. D. Kaplan, J. Ning, J. P. Perdew, and J. Sun.,  J. Phys. Chem. Lett. 11, 9248-9248 (2020)

================================================================================
                                       INPUT FILE
================================================================================
NAME = sp_gas.inp
|  1> ! r2scan-3c def2/J RI DEFGRID2 scfconv6 printgap
|  2> %output
|  3>     printlevel normal
|  4> end
|  5> * xyz 0 1
|  6> C 1.952723473 5.44997e-05 -0.7616463463
|  7> C 1.112449113 -2.21648e-05 0.5144299206
|  8> C 0.2382515122 1.2538141017 0.6292497202
|  9> C -0.9171699258 1.2520593511 -0.3682600902
| 10> C -1.7711094755 8.31616e-05 -0.194852093
| 11> C -0.9173253641 -1.2520224362 -0.3681523197
| 12> C 0.2383215185 -1.2539293496 0.6291216154
| 13> H 2.5887083043 0.8820345547 -0.7916141169
| 14> H 2.5888962318 -0.8818919966 -0.7914101954
| 15> H 1.3297946723 -0.0002060495 -1.6508267732
| 16> H 1.8099238472 -2.98564e-05 1.3616418054
| 17> H -0.1735244491 1.300676208 1.6406708957
| 18> H 0.8540606331 2.1434389911 0.480424112
| 19> H -1.5295227857 2.1433904775 -0.2149202596
| 20> H -0.5294720837 1.2905510199 -1.3874956193
| 21> H -2.2129451104 0.0001545414 0.8046837553
| 22> H -2.586238499 9.38549e-05 -0.9216187497
| 23> H -1.529800969 -2.1432252326 -0.2145503167
| 24> H -0.5298274469 -1.2907717501 -1.3874490589
| 25> H -0.1731962391 -1.3011902357 1.6406335995
| 26> H 0.8541442258 -2.1434673984 0.4797883804
| 27> *
| 28> 
| 29>                          ****END OF INPUT****
================================================================================

                       ****************************
                       * Single Point Calculation *
                       ****************************

---------------------------------
CARTESIAN COORDINATES (ANGSTROEM)
---------------------------------
  C      1.952723    0.000054   -0.761646
  C      1.112449   -0.000022    0.514430
  C      0.238252    1.253814    0.629250
  C     -0.917170    1.252059   -0.368260
  C     -1.771109    0.000083   -0.194852
  C     -0.917325   -1.252022   -0.368152
  C      0.238322   -1.253929    0.629122
  H      2.588708    0.882035   -0.791614
  H      2.588896   -0.881892   -0.791410
  H      1.329795   -0.000206   -1.650827
  H      1.809924   -0.000030    1.361642
  H     -0.173524    1.300676    1.640671
  H      0.854061    2.143439    0.480424
  H     -1.529523    2.143390   -0.214920
  H     -0.529472    1.290551   -1.387496
  H     -2.212945    0.000155    0.804684
  H     -2.586238    0.000094   -0.921619
  H     -1.529801   -2.143225   -0.214550
  H     -0.529827   -1.290772   -1.387449
  H     -0.173196   -1.301190    1.640634
  H      0.854144   -2.143467    0.479788

----------------------------
CARTESIAN COORDINATES (A.U.)
----------------------------
  NO LB      ZA    FRAG     MASS         X           Y           Z
   0 C     6.0000    0    12.011    3.690113    0.000103   -1.439303
   1 C     6.0000    0    12.011    2.102224   -0.000042    0.972132
   2 C     6.0000    0    12.011    0.450230    2.369365    1.189110
   3 C     6.0000    0    12.011   -1.733200    2.366049   -0.695911
   4 C     6.0000    0    12.011   -3.346912    0.000157   -0.368217
   5 C     6.0000    0    12.011   -1.733494   -2.365980   -0.695707
   6 C     6.0000    0    12.011    0.450362   -2.369583    1.188868
   7 H     1.0000    0     1.008    4.891950    1.666804   -1.495934
   8 H     1.0000    0     1.008    4.892305   -1.666534   -1.495549
   9 H     1.0000    0     1.008    2.512948   -0.000389   -3.119610
  10 H     1.0000    0     1.008    3.420260   -0.000056    2.573130
  11 H     1.0000    0     1.008   -0.327914    2.457922    3.100419
  12 H     1.0000    0     1.008    1.613941    4.050513    0.907870
  13 H     1.0000    0     1.008   -2.890379    4.050421   -0.406140
  14 H     1.0000    0     1.008   -1.000557    2.438788   -2.621987
  15 H     1.0000    0     1.008   -4.181860    0.000292    1.520632
  16 H     1.0000    0     1.008   -4.887282    0.000177   -1.741607
  17 H     1.0000    0     1.008   -2.890905   -4.050109   -0.405441
  18 H     1.0000    0     1.008   -1.001229   -2.439205   -2.621899
  19 H     1.0000    0     1.008   -0.327293   -2.458893    3.100348
  20 H     1.0000    0     1.008    1.614099   -4.050566    0.906669

--------------------------------
INTERNAL COORDINATES (ANGSTROEM)
--------------------------------
 C      0   0   0     0.000000000000     0.00000000     0.00000000
 C      1   0   0     1.527884696205     0.00000000     0.00000000
 C      2   1   0     1.532811278278   112.09701012     0.00000000
 C      3   2   1     1.526442793027   112.44566162    71.40099413
 C      4   3   2     1.525361421798   110.51224282    56.53171449
 C      5   4   3     1.525368383537   110.33272690   302.37378052
 C      6   5   4     1.526459516401   110.52115888    57.61654038
 H      1   2   3     1.087779201096   110.15682615    58.27677076
 H      1   2   3     1.087856280989   110.14661371   177.73055236
 H      1   2   3     1.085671308550   111.62203376   297.99419319
 H      2   1   3     1.097378231355   107.17255741   241.99034423
 H      3   2   1     1.093036272756   108.61702713   191.66808385
 H      3   2   1     1.092154924395   109.54364061   309.02383869
 H      4   3   2     1.092227222498   109.37147789   177.61752864
 H      4   3   2     1.091160982218   109.96370879   295.50926610
 H      5   4   3     1.092836056048   109.28475994    62.55951600
 H      5   4   3     1.092073760493   110.01064298   180.81890879
 H      6   5   4     1.092228165831   109.87254812   178.40207817
 H      6   5   4     1.091156261819   109.51493397   296.32421897
 H      7   6   5     1.093040232632   108.63977662    63.75551753
 H      7   6   5     1.092161142948   109.78978231   181.26474388

---------------------------
INTERNAL COORDINATES (A.U.)
---------------------------
 C      0   0   0     0.000000000000     0.00000000     0.00000000
 C      1   0   0     2.887283640036     0.00000000     0.00000000
 C      2   1   0     2.896593530931   112.09701012     0.00000000
 C      3   2   1     2.884558837919   112.44566162    71.40099413
 C      4   3   2     2.882515342447   110.51224282    56.53171449
 C      5   4   3     2.882528498228   110.33272690   302.37378052
 C      6   5   4     2.884590440516   110.52115888    57.61654038
 H      1   2   3     2.055604784246   110.15682615    58.27677076
 H      1   2   3     2.055750444136   110.14661371   177.73055236
 H      1   2   3     2.051621444616   111.62203376   297.99419319
 H      2   1   3     2.073744322589   107.17255741   241.99034423
 H      3   2   1     2.065539209952   108.61702713   191.66808385
 H      3   2   1     2.063873702920   109.54364061   309.02383869
 H      4   3   2     2.064010326535   109.37147789   177.61752864
 H      4   3   2     2.061995424413   109.96370879   295.50926610
 H      5   4   3     2.065160855206   109.28475994    62.55951600
 H      5   4   3     2.063720325373   110.01064298   180.81890879
 H      6   5   4     2.064012109176   109.87254812   178.40207817
 H      6   5   4     2.061986504150   109.51493397   296.32421897
 H      7   6   5     2.065546693033   108.63977662    63.75551753
 H      7   6   5     2.063885454282   109.78978231   181.26474388

---------------------
BASIS SET INFORMATION
---------------------
There are 2 groups of distinct atoms

 Group   1 Type C   : 11s6p1d contracted to 5s3p1d pattern {62111/411/1}
 Group   2 Type H   : 4s1p contracted to 2s1p pattern {31/1}

Atom   0C    basis set group =>   1
Atom   1C    basis set group =>   1
Atom   2C    basis set group =>   1
Atom   3C    basis set group =>   1
Atom   4C    basis set group =>   1
Atom   5C    basis set group =>   1
Atom   6C    basis set group =>   1
Atom   7H    basis set group =>   2
Atom   8H    basis set group =>   2
Atom   9H    basis set group =>   2
Atom  10H    basis set group =>   2
Atom  11H    basis set group =>   2
Atom  12H    basis set group =>   2
Atom  13H    basis set group =>   2
Atom  14H    basis set group =>   2
Atom  15H    basis set group =>   2
Atom  16H    basis set group =>   2
Atom  17H    basis set group =>   2
Atom  18H    basis set group =>   2
Atom  19H    basis set group =>   2
Atom  20H    basis set group =>   2
---------------------------------
AUXILIARY/J BASIS SET INFORMATION
---------------------------------
There are 2 groups of distinct atoms

 Group   1 Type C   : 12s5p4d2f1g contracted to 6s4p3d1f1g pattern {711111/2111/211/2/1}
 Group   2 Type H   : 5s2p1d contracted to 3s1p1d pattern {311/2/1}

Atom   0C    basis set group =>   1
Atom   1C    basis set group =>   1
Atom   2C    basis set group =>   1
Atom   3C    basis set group =>   1
Atom   4C    basis set group =>   1
Atom   5C    basis set group =>   1
Atom   6C    basis set group =>   1
Atom   7H    basis set group =>   2
Atom   8H    basis set group =>   2
Atom   9H    basis set group =>   2
Atom  10H    basis set group =>   2
Atom  11H    basis set group =>   2
Atom  12H    basis set group =>   2
Atom  13H    basis set group =>   2
Atom  14H    basis set group =>   2
Atom  15H    basis set group =>   2
Atom  16H    basis set group =>   2
Atom  17H    basis set group =>   2
Atom  18H    basis set group =>   2
Atom  19H    basis set group =>   2
Atom  20H    basis set group =>   2

Checking for AutoStart:
The File: sp_gas.gbw exists
Trying to determine its content:
     ... Fine, the file contains calculation information
     ... Fine, the calculation information was read
     ... Fine, the file contains a basis set
     ... Fine, the basis set was read
     ... Fine, the file contains a geometry
     ... Fine, the geometry was read
     ... Fine, the file contains a set of orbitals
     ... Fine, the orbitals can be read
     => possible old guess file was deleted
     => GBW file was renamed to GES file
     => GES file is set as startup file
     => Guess is set to MORead
     ... now leaving AutoStart

------------------------------------------------------------------------------
                             ORCA STARTUP CALCULATIONS
                           -- RI-GTO INTEGRALS CHOSEN --
------------------------------------------------------------------------------
------------------------------------------------------------------------------
                   ___                                                        
                  /   \      - P O W E R E D   B Y -                         
                 /     \                                                     
                 |  |  |   _    _      __       _____    __    __             
                 |  |  |  | |  | |    /  \     |  _  \  |  |  /  |          
                  \  \/   | |  | |   /    \    | | | |  |  | /  /          
                 / \  \   | |__| |  /  /\  \   | |_| |  |  |/  /          
                |  |  |   |  __  | /  /__\  \  |    /   |      \           
                |  |  |   | |  | | |   __   |  |    \   |  |\   \          
                \     /   | |  | | |  |  |  |  | |\  \  |  | \   \       
                 \___/    |_|  |_| |__|  |__|  |_| \__\ |__|  \__/        
                                                                              
                      - O R C A' S   B I G   F R I E N D -                    
                                      &                                       
                       - I N T E G R A L  F E E D E R -                       
                                                                              
 v1 FN, 2020, v2 2021, v3 2022-2024                                           
------------------------------------------------------------------------------


----------------------
SHARK INTEGRAL PACKAGE
----------------------

Number of atoms                             ...     21
Number of basis functions                   ...    203
Number of shells                            ...    105
Maximum angular momentum                    ...      2
Integral batch strategy                     ... SHARK/LIBINT Hybrid
RI-J (if used) integral strategy            ... SPLIT-RIJ (Revised 2003 algorithm where possible)
Printlevel                                  ...      1
Contraction scheme used                     ... SEGMENTED contraction
Prescreening option                         ... SCHWARTZ
   Thresh                                   ... 1.000e-10
   Tcut                                     ... 1.000e-11
   Tpresel                                  ... 1.000e-11 
Coulomb Range Separation                    ... NOT USED
Exchange Range Separation                   ... NOT USED
Multipole approximations                    ... NOT USED
Finite Nucleus Model                        ... NOT USED
CABS basis                                  ... NOT available
Auxiliary Coulomb fitting basis             ... AVAILABLE
   # of basis functions in Aux-J            ...    497
   # of shells in Aux-J                     ...    175
   Maximum angular momentum in Aux-J        ...      4
Auxiliary J/K fitting basis                 ... NOT available
Auxiliary Correlation fitting basis         ... NOT available
Auxiliary 'external' fitting basis          ... NOT available

Checking pre-screening integrals            ... done (  0.0 sec) Dimension = 105
Check shell pair data                       ... done (  0.0 sec)
Shell pair information
Shell pair cut-off parameter TPreSel        ...   1.0e-11
Total number of shell pairs                 ...      5565
Shell pairs after pre-screening             ...      5292
Total number of primitive shell pairs       ...     19502
Primitive shell pairs kept                  ...     13541
          la=0 lb=0:   1890 shell pairs
          la=1 lb=0:   2095 shell pairs
          la=1 lb=1:    601 shell pairs
          la=2 lb=0:    437 shell pairs
          la=2 lb=1:    241 shell pairs
          la=2 lb=2:     28 shell pairs

Calculating one electron integrals          ... done (  0.0 sec)
Calculating RI/J V-Matrix + Cholesky decomp.... done (  0.1 sec)
Calculating Nuclear repulsion               ... done (  0.0 sec) ENN=    334.542961722752 Eh

Diagonalization of the overlap matrix:
Smallest eigenvalue                        ... 1.108e-04
Time for diagonalization                   ...    0.004 sec
Threshold for overlap eigenvalues          ... 1.000e-07
Number of eigenvalues below threshold      ... 0
Time for construction of square roots      ...    0.014 sec
Total time needed                          ...    0.027 sec

-------------------
DFT GRID GENERATION
-------------------

General Integration Accuracy     IntAcc      ... 4.388
Radial Grid Type                 RadialGrid  ... OptM3 with GC (2021)
Angular Grid (max. ang.)         AngularGrid ... 4 (Lebedev-302)
Angular grid pruning method      GridPruning ... 4 (adaptive)
Weight generation scheme         WeightScheme... mBecke (2022)
Basis function cutoff            BFCut       ... 1.0000e-10
Integration weight cutoff        WCut        ... 1.0000e-14
Partially contracted basis set               ... off
Rotationally invariant grid construction     ... off
Angular grids for H and He will be reduced by one unit

Total number of grid points                  ...    86327
Total number of batches                      ...     1358
Average number of points per batch           ...       63
Average number of grid points per atom       ...     4111
Initializing property integral containers    ... done (  0.0 sec)

SHARK setup successfully completed in   1.2 seconds

Maximum memory used throughout the entire STARTUP-calculation: 36.8 MB
-------------------------------------------------------------------------------
                                 ORCA GUESS
                   Start orbitals & Density for SCF / CASSCF
-------------------------------------------------------------------------------

------------
SCF SETTINGS
------------
Hamiltonian:
 Density Functional     Method          .... DFT(GTOs)
  Functional kind                       .... Exchange
  Functional name                       .... Re-regularized SCAN exchange by Furness et al
  Functional family                     .... MGGA
  Functional refs                              
    [ 0] J. W. Furness, A. D. Kaplan, J. Ning, J. P. Perdew, and J. Sun.,  J. Phys. Chem. Lett. 11, 8208-8215 (2020), doi: 10.1021/acs.jpclett.0c02405
    [ 1] J. W. Furness, A. D. Kaplan, J. Ning, J. P. Perdew, and J. Sun.,  J. Phys. Chem. Lett. 11, 9248-9248 (2020), doi: 10.1021/acs.jpclett.0c03077
  Functional external parameters        .... 6
    Parameter  0 _c1        =  6.670000e-01 : c1 parameter        
    Parameter  1 _c2        =  8.000000e-01 : c2 parameter        
    Parameter  2 _d         =  1.240000e+00 : d parameter         
    Parameter  3 _k1        =  6.500000e-02 : k1 parameter        
    Parameter  4 _eta       =  1.000000e-03 : eta parameter       
    Parameter  5 _dp2       =  3.610000e-01 : dp2 parameter       
  Functional kind                       .... Correlation
  Functional name                       .... Re-regularized SCAN correlation by Furness et al
  Functional family                     .... MGGA
  Functional refs                              
    [ 0] J. W. Furness, A. D. Kaplan, J. Ning, J. P. Perdew, and J. Sun.,  J. Phys. Chem. Lett. 11, 8208-8215 (2020), doi: 10.1021/acs.jpclett.0c02405
    [ 1] J. W. Furness, A. D. Kaplan, J. Ning, J. P. Perdew, and J. Sun.,  J. Phys. Chem. Lett. 11, 9248-9248 (2020), doi: 10.1021/acs.jpclett.0c03077
  Functional external parameters        .... 1
    Parameter  0 _eta       =  1.000000e-03 : Regularization parameter
 Gradients option       PostSCFGGA      .... off
 RI-approximation to the Coulomb term is turned on
   Number of AuxJ basis functions       .... 497


General Settings:
 Integral files         IntName         .... sp_gas
 Hartree-Fock type      HFTyp           .... RHF
 Total Charge           Charge          ....    0
 Multiplicity           Mult            ....    1
 Number of Electrons    NEL             ....   56
 Basis Dimension        Dim             ....  203
 Nuclear Repulsion      ENuc            ....    334.5429617228 Eh

Convergence Acceleration:
 AO-DIIS                CNVDIIS         .... on
   Start iteration      DIISMaxIt       ....    12
   Startup error        DIISStart       ....  0.200000
   # of expansion vecs  DIISMaxEq       ....     5
   Bias factor          DIISBfac        ....   1.050
   Max. coefficient     DIISMaxC        ....  10.000
 MO-DIIS                CNVKDIIS        .... off
 Trust-Rad. Augm. Hess. CNVTRAH         .... auto
   Auto Start mean grad. ratio tolernc. ....  1.125000
   Auto Start start iteration           ....     1
   Auto Start num. interpolation iter.  ....    10
   Max. Number of Micro iterations      ....    24
   Max. Number of Macro iterations      .... Maxiter - #DIIS iter
   Number of Davidson start vectors     ....     2
   Converg. threshold    (grad. norm)   ....   3.330e-04
   Grad. Scal. Fac. for Micro threshold ....   0.100
   Minimum threshold for Micro iter.    ....   1.000e-02
   NR start threshold (gradient norm)   ....   1.000e-04
   Initial trust radius                 ....   0.400
   Minimum AH scaling param. (alpha)    ....   1.000
   Maximum AH scaling param. (alpha)    .... 1000.000
   Quad. conv. algorithm                .... NR
   White noise on init. David. guess    .... on
   Maximum white noise                  ....   0.010
   Pseudo random numbers                .... off
   Inactive MOs                         .... canonical
   Orbital update algorithm             .... Taylor
   Preconditioner                       .... Diag
   Full preconditioner red. dimension   ....   250
   COSX micro iterations for RIJONX calc.... off
 SOSCF                  CNVSOSCF        .... on
   Start iteration      SOSCFMaxIt      ....   150
   Startup grad/error   SOSCFStart      ....  0.003300
   Hessian update       SOSCFHessUp     .... L-BFGS
 Level Shifting         CNVShift        .... on
   Level shift para.    LevelShift      ....    0.2500
   Turn off err/grad.   ShiftErr        ....    0.0010
 Zerner damping         CNVZerner       .... off
 Static damping         CNVDamp         .... on
   Fraction old density DampFac         ....    0.7000
   Max. Damping (<1)    DampMax         ....    0.9800
   Min. Damping (>=0)   DampMin         ....    0.0000
   Turn off err/grad.   DampErr         ....    0.1000

SCF Procedure:
 Maximum # iterations   MaxIter         ....   125
 SCF integral mode      SCFMode         .... Direct
   Integral package                     .... SHARK and LIBINT hybrid scheme
 Reset frequency        DirectResetFreq ....    20
 Integral Threshold     Thresh          ....  1.000e-10 Eh
 Primitive CutOff       TCut            ....  1.000e-11 Eh

Convergence Tolerance:
 Convergence Check Mode ConvCheckMode   .... Total+1el-Energy
 Convergence forced     ConvForced      .... 0
 Energy Change          TolE            ....  1.000e-06 Eh
 1-El. energy change                    ....  1.000e-03 Eh
 Orbital Gradient       TolG            ....  3.330e-04
 Orbital Rotation angle TolX            ....  3.330e-04
 DIIS Error             TolErr          ....  1.000e-06

---------------------
INITIAL GUESS: MOREAD
---------------------
Guess MOs are being read from file: sp_gas.ges
Input Geometry matches current geometry (good)
Atom 0: N(Shells)= 9 and 6 - projection required
Input basis set needs projection
NBasis(read)= 126
NBasis(calc)= 203
Basis set overlap was calculated
Using GuessMode=FMatrix for the initial guess
C*T matrix was formed
Effective Fockian was calculated
Effective Fockian was diagonalized
Initial density was built
                      ------------------
                      INITIAL GUESS DONE (   0.0 sec)
                      ------------------
             **** ENERGY FILE WAS UPDATED (sp_gas.en.tmp) ****
Finished Guess after   0.2 sec
Maximum memory used throughout the entire GUESS-calculation: 14.5 MB

-------------------------------------------------------------------------------------------
                                      ORCA LEAN-SCF
                              memory conserving SCF solver
-------------------------------------------------------------------------------------------

----------------------------------------D-I-I-S--------------------------------------------
Iteration    Energy (Eh)           Delta-E    RMSDP     MaxDP     DIISErr   Damp  Time(sec)
-------------------------------------------------------------------------------------------
               ***  Starting incremental Fock matrix formation  ***
    1    -274.9518622976007691     0.00e+00  6.96e-03  2.33e-01  2.86e-01  0.700   3.1
    2    -274.9943256826840070    -4.25e-02  5.32e-03  1.64e-01  2.01e-01  0.700   2.7
                               ***Turning on AO-DIIS***
    3    -275.0243528893186067    -3.00e-02  3.84e-03  1.13e-01  1.41e-01  0.700   2.6
    4    -275.0454272049432802    -2.11e-02  2.73e-03  7.83e-02  9.86e-02  0.700   2.5
    5    -275.0602061293872111    -1.48e-02  6.40e-03  1.82e-01  6.90e-02  0.000   2.6
                              *** Initializing SOSCF ***
---------------------------------------S-O-S-C-F--------------------------------------
Iteration    Energy (Eh)           Delta-E    RMSDP     MaxDP     MaxGrad    Time(sec)
--------------------------------------------------------------------------------------
    6    -275.0947918048269685    -3.46e-02  5.28e-05  1.09e-03  1.68e-04     2.8
               *** Restarting incremental Fock matrix formation ***
    7    -275.0947924270714111    -6.22e-07  1.91e-05  4.68e-04  3.48e-05     2.9
                  *** Gradient check signals convergence ***

               *****************************************************
               *                     SUCCESS                       *
               *           SCF CONVERGED AFTER   7 CYCLES          *
               *****************************************************

             **** ENERGY FILE WAS UPDATED (sp_gas.en.tmp) ****

----------------
TOTAL SCF ENERGY
----------------

Total Energy       :       -275.09479242707141 Eh           -7485.70987 eV

Components:
Nuclear Repulsion  :        334.54296172275247 Eh            9103.37680 eV
Electronic Energy  :       -609.63775414982388 Eh          -16589.08666 eV
One Electron Energy:      -1032.17032271453195 Eh          -28086.78239 eV
Two Electron Energy:        422.53256856470807 Eh           11497.69572 eV

Virial components:
Potential Energy   :       -548.89174732449374 Eh          -14936.10378 eV
Kinetic Energy     :        273.79695489742238 Eh            7450.39391 eV
Virial Ratio       :          2.00474014596012

DFT components:
N(Alpha)           :       28.000348089441 electrons
N(Beta)            :       28.000348089441 electrons
N(Total)           :       56.000696178881 electrons
E(X)               :      -41.461001222881 Eh       
E(C)               :       -1.745490589059 Eh       
E(XC)              :      -43.206491811940 Eh       

---------------
SCF CONVERGENCE
---------------

  Last Energy change         ...    6.2224e-07  Tolerance :   1.0000e-06
  Last MAX-Density change    ...    4.6848e-04  Tolerance :   1.0000e-05
  Last RMS-Density change    ...    1.9109e-05  Tolerance :   1.0000e-06
  Last DIIS Error            ...    1.6830e-04  Tolerance :   1.0000e-06
  Last Orbital Gradient      ...    3.4790e-05  Tolerance :   3.3300e-04
  Last Orbital Rotation      ...    6.3519e-05  Tolerance :   3.3300e-04


----------------
ORBITAL ENERGIES
----------------

  NO   OCC          E(Eh)            E(eV) 
   0   2.0000     -10.027009      -272.8488 
   1   2.0000     -10.018389      -272.6142 
   2   2.0000     -10.018267      -272.6109 
   3   2.0000     -10.018192      -272.6089 
   4   2.0000     -10.017473      -272.5893 
   5   2.0000     -10.017464      -272.5891 
   6   2.0000     -10.011653      -272.4309 
   7   2.0000      -0.799692       -21.7607 
   8   2.0000      -0.723975       -19.7003 
   9   2.0000      -0.703553       -19.1446 
  10   2.0000      -0.641581       -17.4583 
  11   2.0000      -0.569756       -15.5038 
  12   2.0000      -0.557993       -15.1838 
  13   2.0000      -0.494187       -13.4475 
  14   2.0000      -0.450233       -12.2515 
  15   2.0000      -0.414765       -11.2863 
  16   2.0000      -0.412313       -11.2196 
  17   2.0000      -0.392984       -10.6936 
  18   2.0000      -0.368431       -10.0255 
  19   2.0000      -0.366189        -9.9645 
  20   2.0000      -0.341102        -9.2819 
  21   2.0000      -0.324926        -8.8417 
  22   2.0000      -0.322379        -8.7724 
  23   2.0000      -0.304457        -8.2847 
  24   2.0000      -0.301081        -8.1928 
  25   2.0000      -0.276485        -7.5235 
  26   2.0000      -0.259630        -7.0649 
  27   2.0000      -0.259126        -7.0512 
  28   0.0000       0.081036         2.2051 
  29   0.0000       0.107489         2.9249 
  30   0.0000       0.114351         3.1117 
  31   0.0000       0.116676         3.1749 
  32   0.0000       0.123374         3.3572 
  33   0.0000       0.133359         3.6289 
  34   0.0000       0.136655         3.7186 
  35   0.0000       0.154734         4.2105 
  36   0.0000       0.156214         4.2508 
  37   0.0000       0.175932         4.7873 
  38   0.0000       0.176313         4.7977 
*Only the first 10 virtual orbitals were printed.

                    ********************************
                    * MULLIKEN POPULATION ANALYSIS *
                    ********************************

-----------------------
MULLIKEN ATOMIC CHARGES
-----------------------
   0 C :   -0.534536
   1 C :    0.027811
   2 C :   -0.327122
   3 C :   -0.316014
   4 C :   -0.267353
   5 C :   -0.316032
   6 C :   -0.327141
   7 H :    0.147375
   8 H :    0.147361
   9 H :    0.154573
  10 H :    0.148083
  11 H :    0.147259
  12 H :    0.145714
  13 H :    0.144933
  14 H :    0.150951
  15 H :    0.139372
  16 H :    0.145915
  17 H :    0.144924
  18 H :    0.150955
  19 H :    0.147274
  20 H :    0.145697
Sum of atomic charges:   -0.0000000

--------------------------------
MULLIKEN REDUCED ORBITAL CHARGES
--------------------------------
  0 C s       :     3.346296  s :     3.346296
      pz      :     0.984126  p :     3.161140
      px      :     1.065451
      py      :     1.111562
      dz2     :     0.007849  d :     0.027100
      dxz     :     0.007631
      dyz     :     0.001844
      dx2y2   :     0.001784
      dxy     :     0.007992

  1 C s       :     3.022612  s :     3.022612
      pz      :     1.014259  p :     2.903262
      px      :     0.980052
      py      :     0.908951
      dz2     :     0.008916  d :     0.046316
      dxz     :     0.012455
      dyz     :     0.005367
      dx2y2   :     0.007956
      dxy     :     0.011622

  2 C s       :     3.236098  s :     3.236098
      pz      :     1.019728  p :     3.054062
      px      :     0.995081
      py      :     1.039253
      dz2     :     0.009231  d :     0.036962
      dxz     :     0.008484
      dyz     :     0.002760
      dx2y2   :     0.005910
      dxy     :     0.010578

  3 C s       :     3.238361  s :     3.238361
      pz      :     1.004567  p :     3.040488
      px      :     0.992334
      py      :     1.043588
      dz2     :     0.009554  d :     0.037164
      dxz     :     0.008202
      dyz     :     0.002956
      dx2y2   :     0.006078
      dxy     :     0.010374

  4 C s       :     3.220507  s :     3.220507
      pz      :     1.097223  p :     3.009673
      px      :     1.004113
      py      :     0.908337
      dz2     :     0.006852  d :     0.037172
      dxz     :     0.008975
      dyz     :     0.003853
      dx2y2   :     0.007854
      dxy     :     0.009638

  5 C s       :     3.238357  s :     3.238357
      pz      :     1.004639  p :     3.040511
      px      :     0.992322
      py      :     1.043550
      dz2     :     0.009554  d :     0.037164
      dxz     :     0.008200
      dyz     :     0.002957
      dx2y2   :     0.006078
      dxy     :     0.010375

  6 C s       :     3.236135  s :     3.236135
      pz      :     1.019824  p :     3.054044
      px      :     0.995034
      py      :     1.039185
      dz2     :     0.009231  d :     0.036961
      dxz     :     0.008481
      dyz     :     0.002761
      dx2y2   :     0.005910
      dxy     :     0.010577

  7 H s       :     0.834364  s :     0.834364
      pz      :     0.003697  p :     0.018261
      px      :     0.006165
      py      :     0.008399

  8 H s       :     0.834381  s :     0.834381
      pz      :     0.003696  p :     0.018258
      px      :     0.006165
      py      :     0.008397

  9 H s       :     0.826782  s :     0.826782
      pz      :     0.008614  p :     0.018645
      px      :     0.006224
      py      :     0.003807

 10 H s       :     0.834635  s :     0.834635
      pz      :     0.007673  p :     0.017282
      px      :     0.006267
      py      :     0.003342

 11 H s       :     0.835023  s :     0.835023
      pz      :     0.009778  p :     0.017718
      px      :     0.004496
      py      :     0.003444

 12 H s       :     0.836465  s :     0.836465
      pz      :     0.003597  p :     0.017821
      px      :     0.005788
      py      :     0.008436

 13 H s       :     0.837220  s :     0.837220
      pz      :     0.003643  p :     0.017847
      px      :     0.005788
      py      :     0.008416

 14 H s       :     0.831091  s :     0.831091
      pz      :     0.009956  p :     0.017958
      px      :     0.004540
      py      :     0.003463

 15 H s       :     0.842878  s :     0.842878
      pz      :     0.009680  p :     0.017750
      px      :     0.004598
      py      :     0.003473

 16 H s       :     0.836252  s :     0.836252
      pz      :     0.006645  p :     0.017833
      px      :     0.007667
      py      :     0.003521

 17 H s       :     0.837229  s :     0.837229
      pz      :     0.003643  p :     0.017847
      px      :     0.005789
      py      :     0.008415

 18 H s       :     0.831087  s :     0.831087
      pz      :     0.009956  p :     0.017958
      px      :     0.004538
      py      :     0.003463

 19 H s       :     0.835008  s :     0.835008
      pz      :     0.009779  p :     0.017718
      px      :     0.004495
      py      :     0.003444

 20 H s       :     0.836483  s :     0.836483
      pz      :     0.003598  p :     0.017821
      px      :     0.005788
      py      :     0.008435


------------------------
MULLIKEN OVERLAP CHARGES
------------------------
B(  0-C ,  1-C ) :   0.4103 B(  0-C ,  2-C ) :  -0.2626 B(  0-C ,  3-C ) :   0.0714 
B(  0-C ,  5-C ) :   0.0715 B(  0-C ,  6-C ) :  -0.2628 B(  0-C ,  7-H ) :   0.7997 
B(  0-C ,  8-H ) :   0.7997 B(  0-C ,  9-H ) :   0.8637 B(  0-C , 10-H ) :  -0.0542 
B(  1-C ,  2-C ) :   0.5128 B(  1-C ,  3-C ) :  -0.3278 B(  1-C ,  4-C ) :   0.1768 
B(  1-C ,  5-C ) :  -0.3279 B(  1-C ,  6-C ) :   0.5132 B(  1-C ,  7-H ) :  -0.0769 
B(  1-C ,  8-H ) :  -0.0769 B(  1-C ,  9-H ) :  -0.1133 B(  1-C , 10-H ) :   0.7628 
B(  1-C , 11-H ) :  -0.1018 B(  1-C , 19-H ) :  -0.1018 B(  2-C ,  3-C ) :   0.2555 
B(  2-C ,  4-C ) :  -0.2911 B(  2-C ,  5-C ) :   0.1754 B(  2-C ,  6-C ) :  -0.3212 
B(  2-C , 10-H ) :  -0.0502 B(  2-C , 11-H ) :   0.8095 B(  2-C , 12-H ) :   0.7196 
B(  2-C , 14-H ) :  -0.1261 B(  3-C ,  4-C ) :   0.2945 B(  3-C ,  5-C ) :  -0.3152 
B(  3-C ,  6-C ) :   0.1753 B(  3-C , 11-H ) :  -0.0654 B(  3-C , 13-H ) :   0.6771 
B(  3-C , 14-H ) :   0.8930 B(  3-C , 15-H ) :  -0.0959 B(  4-C ,  5-C ) :   0.2945 
B(  4-C ,  6-C ) :  -0.2910 B(  4-C , 14-H ) :  -0.0909 B(  4-C , 15-H ) :   0.8635 
B(  4-C , 16-H ) :   0.6955 B(  4-C , 18-H ) :  -0.0909 B(  5-C ,  6-C ) :   0.2557 
B(  5-C , 15-H ) :  -0.0959 B(  5-C , 17-H ) :   0.6771 B(  5-C , 18-H ) :   0.8930 
B(  5-C , 19-H ) :  -0.0653 B(  6-C , 10-H ) :  -0.0502 B(  6-C , 18-H ) :  -0.1261 
B(  6-C , 19-H ) :   0.8095 B(  6-C , 20-H ) :   0.7197 


                     *******************************
                     * LOEWDIN POPULATION ANALYSIS *
                     *******************************

----------------------
LOEWDIN ATOMIC CHARGES
----------------------
   0 C :   -0.416615
   1 C :   -0.237987
   2 C :   -0.299325
   3 C :   -0.305048
   4 C :   -0.303782
   5 C :   -0.305052
   6 C :   -0.299326
   7 H :    0.154244
   8 H :    0.154250
   9 H :    0.150647
  10 H :    0.156705
  11 H :    0.157218
  12 H :    0.156457
  13 H :    0.154627
  14 H :    0.153601
  15 H :    0.153793
  16 H :    0.153691
  17 H :    0.154628
  18 H :    0.153595
  19 H :    0.157217
  20 H :    0.156463

-------------------------------
LOEWDIN REDUCED ORBITAL CHARGES
-------------------------------
  0 C s       :     2.966179  s :     2.966179
      pz      :     1.107255  p :     3.386655
      px      :     1.123138
      py      :     1.156262
      dz2     :     0.018177  d :     0.063780
      dxz     :     0.018526
      dyz     :     0.003313
      dx2y2   :     0.004114
      dxy     :     0.019652

  1 C s       :     2.901705  s :     2.901705
      pz      :     1.095355  p :     3.241135
      px      :     1.073535
      py      :     1.072245
      dz2     :     0.018743  d :     0.095147
      dxz     :     0.027152
      dyz     :     0.008967
      dx2y2   :     0.015205
      dxy     :     0.025080

  2 C s       :     2.929025  s :     2.929025
      pz      :     1.111732  p :     3.290123
      px      :     1.086663
      py      :     1.091728
      dz2     :     0.020604  d :     0.080177
      dxz     :     0.019052
      dyz     :     0.004846
      dx2y2   :     0.011908
      dxy     :     0.023768

  3 C s       :     2.928988  s :     2.928988
      pz      :     1.116113  p :     3.295440
      px      :     1.085326
      py      :     1.094001
      dz2     :     0.021530  d :     0.080621
      dxz     :     0.018544
      dyz     :     0.005086
      dx2y2   :     0.012187
      dxy     :     0.023274

  4 C s       :     2.932228  s :     2.932228
      pz      :     1.138997  p :     3.290821
      px      :     1.090282
      py      :     1.061542
      dz2     :     0.016162  d :     0.080733
      dxz     :     0.020653
      dyz     :     0.006675
      dx2y2   :     0.015858
      dxy     :     0.021384

  5 C s       :     2.928989  s :     2.928989
      pz      :     1.116128  p :     3.295443
      px      :     1.085323
      py      :     1.093992
      dz2     :     0.021531  d :     0.080620
      dxz     :     0.018538
      dyz     :     0.005088
      dx2y2   :     0.012187
      dxy     :     0.023276

  6 C s       :     2.929031  s :     2.929031
      pz      :     1.111760  p :     3.290122
      px      :     1.086649
      py      :     1.091713
      dz2     :     0.020604  d :     0.080173
      dxz     :     0.019045
      dyz     :     0.004849
      dx2y2   :     0.011909
      dxy     :     0.023767

  7 H s       :     0.802213  s :     0.802213
      pz      :     0.008369  p :     0.043543
      px      :     0.014594
      py      :     0.020580

  8 H s       :     0.802216  s :     0.802216
      pz      :     0.008367  p :     0.043534
      px      :     0.014594
      py      :     0.020573

  9 H s       :     0.804557  s :     0.804557
      pz      :     0.021284  p :     0.044796
      px      :     0.015094
      py      :     0.008417

 10 H s       :     0.800225  s :     0.800225
      pz      :     0.018937  p :     0.043069
      px      :     0.015601
      py      :     0.008531

 11 H s       :     0.799497  s :     0.799497
      pz      :     0.024197  p :     0.043285
      px      :     0.010858
      py      :     0.008230

 12 H s       :     0.800071  s :     0.800071
      pz      :     0.008445  p :     0.043473
      px      :     0.014188
      py      :     0.020839

 13 H s       :     0.802006  s :     0.802006
      pz      :     0.008539  p :     0.043368
      px      :     0.014137
      py      :     0.020692

 14 H s       :     0.802670  s :     0.802670
      pz      :     0.024604  p :     0.043729
      px      :     0.010917
      py      :     0.008208

 15 H s       :     0.803080  s :     0.803080
      pz      :     0.023871  p :     0.043127
      px      :     0.011053
      py      :     0.008204

 16 H s       :     0.803015  s :     0.803015
      pz      :     0.016244  p :     0.043293
      px      :     0.018599
      py      :     0.008451

 17 H s       :     0.802004  s :     0.802004
      pz      :     0.008540  p :     0.043368
      px      :     0.014139
      py      :     0.020689

 18 H s       :     0.802676  s :     0.802676
      pz      :     0.024607  p :     0.043729
      px      :     0.010914
      py      :     0.008208

 19 H s       :     0.799499  s :     0.799499
      pz      :     0.024199  p :     0.043284
      px      :     0.010854
      py      :     0.008230

 20 H s       :     0.800065  s :     0.800065
      pz      :     0.008447  p :     0.043472
      px      :     0.014189
      py      :     0.020836


---------------------------------
LOEWDIN BOND ORDERS (THRESH 0.050000)
---------------------------------
B(  0-C ,  1-C ) :   1.1055 B(  0-C ,  2-C ) :   0.0639 B(  0-C ,  6-C ) :   0.0639 
B(  0-C ,  7-H ) :   0.9241 B(  0-C ,  8-H ) :   0.9240 B(  0-C ,  9-H ) :   0.9197 
B(  1-C ,  2-C ) :   1.0757 B(  1-C ,  3-C ) :   0.0547 B(  1-C ,  5-C ) :   0.0547 
B(  1-C ,  6-C ) :   1.0757 B(  1-C , 10-H ) :   0.8585 B(  2-C ,  3-C ) :   1.1005 
B(  2-C ,  4-C ) :   0.0617 B(  2-C ,  6-C ) :   0.0608 B(  2-C , 11-H ) :   0.8851 
B(  2-C , 12-H ) :   0.8871 B(  3-C ,  4-C ) :   1.1050 B(  3-C ,  5-C ) :   0.0612 
B(  3-C , 13-H ) :   0.8915 B(  3-C , 14-H ) :   0.8881 B(  4-C ,  5-C ) :   1.1050 
B(  4-C ,  6-C ) :   0.0617 B(  4-C , 15-H ) :   0.8893 B(  4-C , 16-H ) :   0.8932 
B(  5-C ,  6-C ) :   1.1005 B(  5-C , 17-H ) :   0.8915 B(  5-C , 18-H ) :   0.8882 
B(  6-C , 19-H ) :   0.8851 B(  6-C , 20-H ) :   0.8871 

------------------------------------------
LOEWDIN REDUCED ORBITAL POPULATIONS PER MO
-------------------------------------------
THRESHOLD FOR PRINTING IS 0.1%%
                      0         1         2         3         4         5   
                 -10.02701 -10.01839 -10.01827 -10.01819 -10.01747 -10.01746
                   2.00000   2.00000   2.00000   2.00000   2.00000   2.00000
                  --------  --------  --------  --------  --------  --------
 1 C  s              99.6       0.0       0.0       0.0       0.0       0.0
 2 C  s               0.0       0.1       0.4       0.3      19.1      79.8
 3 C  s               0.0      16.8      48.6      33.5       0.1       0.6
 4 C  s               0.0      65.0       0.0      34.7       0.0       0.0
 4 C  py              0.0       0.0       0.1       0.0       0.0       0.0
 5 C  s               0.0      17.7      50.3      30.9       0.6       0.2
 6 C  s               0.0       0.1       0.4       0.3      79.8      19.1

                      6         7         8         9        10        11   
                 -10.01165  -0.79969  -0.72397  -0.70355  -0.64158  -0.56976
                   2.00000   2.00000   2.00000   2.00000   2.00000   2.00000
                  --------  --------  --------  --------  --------  --------
 0 C  s              99.7       4.3      13.2       0.0      24.9       0.0
 0 C  pz              0.0       1.1       1.1       0.0       0.7       0.0
 0 C  px              0.0       0.9       0.3       0.0       0.5       0.0
 0 C  py              0.0       0.0       0.0       0.3       0.0       0.7
 1 C  s               0.0      14.4      14.4       0.0       0.3       0.0
 1 C  pz              0.1       0.2       0.6       0.0       6.4       0.0
 1 C  px              0.0       1.4       1.1       0.0       6.8       0.0
 1 C  py              0.0       0.0       0.0       7.5       0.0       9.5
 1 C  dz2             0.0       0.0       0.0       0.0       0.2       0.0
 1 C  dxy             0.0       0.0       0.0       0.2       0.0       0.2
 2 C  s               0.0      11.3       0.9      13.8       6.5       7.9
 2 C  pz              0.0       0.6       0.3       0.6       0.8       1.8
 2 C  px              0.0       0.0       4.2       0.9       0.0       2.8
 2 C  py              0.0       1.7       0.9       0.6       0.0       0.3
 3 C  s               0.0       9.7       6.3      13.7       0.1       8.4
 3 C  pz              0.0       0.6       0.1       0.5       0.9       1.7
 3 C  px              0.0       0.3       2.2       0.9       2.1       2.5
 3 C  py              0.0       1.2       1.2       0.6       0.8       0.3
 4 C  s               0.0       9.3      16.4       0.0       6.1       0.0
 4 C  pz              0.0       0.0       0.1       0.0       0.2       0.0
 4 C  px              0.0       2.0       0.3       0.0       0.4       0.0
 4 C  py              0.0       0.0       0.0       7.3       0.0       8.7
 4 C  dxy             0.0       0.0       0.0       0.2       0.0       0.2
 5 C  s               0.0       9.7       6.3      13.7       0.1       8.3
 5 C  pz              0.0       0.6       0.1       0.5       0.9       1.7
 5 C  px              0.0       0.3       2.2       0.9       2.1       2.5
 5 C  py              0.0       1.2       1.2       0.6       0.8       0.3
 6 C  s               0.0      11.3       0.9      13.8       6.5       7.9
 6 C  pz              0.0       0.6       0.3       0.6       0.8       1.8
 6 C  px              0.0       0.0       4.2       0.9       0.0       2.8
 6 C  py              0.0       1.7       0.9       0.6       0.0       0.3
 7 H  s               0.0       0.5       2.1       0.0       6.2       0.1
 7 H  px              0.0       0.0       0.1       0.0       0.2       0.0
 7 H  py              0.0       0.0       0.1       0.0       0.4       0.0
 8 H  s               0.0       0.5       2.1       0.0       6.2       0.1
 8 H  px              0.0       0.0       0.1       0.0       0.2       0.0
 8 H  py              0.0       0.0       0.1       0.0       0.4       0.0
 9 H  s               0.0       0.5       2.0       0.0       6.2       0.0
 9 H  pz              0.0       0.0       0.1       0.0       0.3       0.0
 9 H  px              0.0       0.0       0.1       0.0       0.2       0.0
10 H  s               0.0       1.6       2.5       0.0       0.1       0.0
10 H  pz              0.0       0.1       0.2       0.0       0.0       0.0
11 H  s               0.0       1.2       0.1       2.3       1.9       2.9
11 H  pz              0.0       0.1       0.0       0.2       0.1       0.2
12 H  s               0.0       1.2       0.2       2.6       1.3       3.7
12 H  py              0.0       0.1       0.0       0.1       0.1       0.2
13 H  s               0.0       1.1       1.0       2.6       0.0       3.7
13 H  py              0.0       0.1       0.1       0.1       0.0       0.2
14 H  s               0.0       1.1       0.9       2.3       0.1       3.1
14 H  pz              0.0       0.1       0.1       0.2       0.0       0.2
15 H  s               0.0       1.0       2.5       0.0       1.2       0.0
15 H  pz              0.0       0.1       0.2       0.0       0.1       0.0
16 H  s               0.0       1.0       2.7       0.0       1.8       0.0
16 H  pz              0.0       0.0       0.1       0.0       0.1       0.0
16 H  px              0.0       0.0       0.1       0.0       0.1       0.0
17 H  s               0.0       1.1       1.0       2.6       0.0       3.7
17 H  py              0.0       0.1       0.1       0.1       0.0       0.2
18 H  s               0.0       1.1       0.9       2.3       0.1       3.1
18 H  pz              0.0       0.1       0.1       0.2       0.0       0.2
19 H  s               0.0       1.2       0.1       2.3       1.9       2.9
19 H  pz              0.0       0.1       0.0       0.2       0.1       0.2
20 H  s               0.0       1.2       0.2       2.6       1.3       3.7
20 H  py              0.0       0.1       0.0       0.1       0.1       0.2

                     12        13        14        15        16        17   
                  -0.55799  -0.49419  -0.45023  -0.41476  -0.41231  -0.39298
                   2.00000   2.00000   2.00000   2.00000   2.00000   2.00000
                  --------  --------  --------  --------  --------  --------
 0 C  s               2.1       2.4       0.0       0.0       0.1       0.2
 0 C  pz              3.3       4.6       3.3       0.0       1.3       5.0
 0 C  px              0.2       2.8       2.7       0.0       5.2       7.8
 0 C  py              0.0       0.0       0.0      13.8       0.0       0.0
 0 C  dxz             0.1       0.1       0.0       0.0       0.0       0.1
 1 C  s               7.3       6.4       0.3       0.0       0.5       0.8
 1 C  pz              3.6       0.0       4.4       0.0       3.4      12.1
 1 C  px              0.2       0.7      11.8       0.0       1.6       0.5
 1 C  py              0.0       0.0       0.0       6.1       0.0       0.0
 1 C  dyz             0.0       0.0       0.0       0.1       0.0       0.0
 1 C  dx2y2           0.0       0.0       0.0       0.0       0.2       0.0
 2 C  s               0.4       2.7       0.1       0.2       1.1       0.0
 2 C  pz              1.9       3.4       0.9       7.5       0.9       8.1
 2 C  px              2.2       1.1       1.3       6.8       5.2       0.1
 2 C  py              3.4       2.7       7.1       0.1       3.5       0.7
 2 C  dxy             0.0       0.1       0.0       0.0       0.1       0.0
 3 C  s               4.0       1.7       0.5       0.0       1.2       0.0
 3 C  pz              0.3       7.2       0.5       7.7       3.6       3.9
 3 C  px              3.1       0.1       2.7       2.5       1.1       0.1
 3 C  py              3.9       0.0       9.0       0.0       0.8       2.5
 4 C  s              10.9       1.4       0.1       0.0       1.2       0.0
 4 C  pz              0.4       5.9       1.2       0.0       9.8      14.1
 4 C  px              4.1       2.3       6.4       0.0       5.9       2.6
 4 C  py              0.0       0.0       0.0       1.4       0.0       0.0
 4 C  dx2y2           0.0       0.0       0.0       0.0       0.1       0.0
 5 C  s               4.0       1.7       0.5       0.0       1.2       0.0
 5 C  pz              0.3       7.2       0.5       7.8       3.5       3.9
 5 C  px              3.1       0.1       2.7       2.5       1.1       0.1
 5 C  py              3.9       0.0       9.0       0.0       0.8       2.5
 6 C  s               0.4       2.7       0.1       0.2       1.1       0.0
 6 C  pz              1.9       3.4       0.9       7.5       0.8       8.1
 6 C  px              2.2       1.1       1.3       6.9       5.2       0.1
 6 C  py              3.4       2.7       7.1       0.1       3.6       0.7
 6 C  dxy             0.0       0.1       0.0       0.0       0.1       0.0
 7 H  s               0.9       2.0       0.2       3.1       0.8       1.7
 8 H  s               0.9       2.0       0.2       3.1       0.8       1.7
 9 H  s               1.8       1.3       2.0       0.0       1.4       0.3
 9 H  px              0.0       0.1       0.0       0.0       0.0       0.1
10 H  s               4.2       3.2       5.2       0.0       3.2       0.9
10 H  pz              0.2       0.1       0.2       0.0       0.1       0.0
10 H  px              0.2       0.1       0.0       0.0       0.0       0.1
11 H  s               0.0       4.2       0.2       5.4       0.1       3.5
11 H  pz              0.0       0.2       0.0       0.2       0.0       0.0
12 H  s               0.5       1.7       2.3       0.5       5.9       0.4
12 H  py              0.0       0.0       0.0       0.0       0.2       0.0
13 H  s               1.7       0.3       4.5       0.5       2.7       0.8
14 H  s               2.4       3.8       0.2       4.0       0.4       1.3
14 H  pz              0.2       0.2       0.0       0.1       0.0       0.0
15 H  s               5.1       4.2       0.0       0.0       0.2       6.8
15 H  pz              0.3       0.2       0.0       0.0       0.0       0.2
16 H  s               4.8       0.3       2.0       0.0       9.2       0.6
16 H  pz              0.2       0.0       0.0       0.0       0.1       0.0
16 H  px              0.1       0.0       0.0       0.0       0.2       0.1
17 H  s               1.7       0.3       4.5       0.5       2.7       0.8
18 H  s               2.4       3.8       0.2       4.0       0.4       1.3
18 H  pz              0.2       0.2       0.0       0.1       0.0       0.0
19 H  s               0.0       4.2       0.2       5.4       0.1       3.5
19 H  pz              0.0       0.2       0.0       0.2       0.0       0.0
20 H  s               0.5       1.7       2.3       0.5       5.9       0.4
20 H  py              0.0       0.0       0.0       0.0       0.2       0.0

                     18        19        20        21        22        23   
                  -0.36843  -0.36619  -0.34110  -0.32493  -0.32238  -0.30446
                   2.00000   2.00000   2.00000   2.00000   2.00000   2.00000
                  --------  --------  --------  --------  --------  --------
 0 C  s               0.1       0.0       0.0       0.0       0.1       0.7
 0 C  pz             11.4       0.0       0.0       0.0       7.2       3.5
 0 C  px             13.1       0.0       0.0       0.0       7.0      13.7
 0 C  py              0.0      24.1       0.1      11.2       0.0       0.0
 0 C  dz2             0.1       0.0       0.0       0.0       0.2       0.2
 0 C  dxz             0.1       0.0       0.0       0.0       0.3       0.0
 0 C  dxy             0.0       0.3       0.0       0.3       0.0       0.0
 1 C  s               0.7       0.0       0.0       0.0       0.3       0.0
 1 C  pz              0.1       0.0       0.0       0.0       6.1       7.0
 1 C  px              5.7       0.0       0.0       0.0       6.3       6.3
 1 C  py              0.0       5.0       1.2       5.6       0.0       0.0
 1 C  dz2             0.0       0.0       0.0       0.0       0.2       0.2
 1 C  dxz             0.0       0.0       0.0       0.0       0.2       0.1
 1 C  dyz             0.0       0.0       0.0       0.2       0.0       0.0
 1 C  dxy             0.0       0.0       0.3       0.2       0.0       0.0
 2 C  s               0.1       0.1       0.5       0.1       0.5       0.0
 2 C  pz              1.7       2.2       1.0       4.7       0.5       2.2
 2 C  px              0.3       0.6       5.1       6.6       1.0       0.8
 2 C  py              3.2       2.1      10.5       1.6       3.0       1.7
 2 C  dxy             0.2       0.0       0.0       0.0       0.1       0.0
 3 C  s               0.1       0.0       0.5       0.0       0.0       0.1
 3 C  pz              0.1       1.3       0.9       8.9       0.8       2.2
 3 C  px              1.9      10.5       5.4       2.9       0.3       3.9
 3 C  py              6.5       0.7      10.7       3.5       1.1       1.1
 3 C  dxz             0.0       0.0       0.1       0.1       0.2       0.0
 3 C  dx2y2           0.0       0.0       0.1       0.0       0.0       0.1
 3 C  dxy             0.2       0.0       0.0       0.0       0.0       0.0
 4 C  s               0.6       0.0       0.0       0.0       0.2       0.2
 4 C  pz              0.0       0.0       0.0       0.0      11.4       8.6
 4 C  px              7.9       0.0       0.0       0.0       5.5       8.5
 4 C  py              0.0      10.3       1.3       6.0       0.0       0.0
 4 C  dz2             0.0       0.0       0.0       0.0       0.0       0.3
 4 C  dxz             0.0       0.0       0.0       0.0       0.4       0.1
 4 C  dyz             0.0       0.0       0.0       0.2       0.0       0.0
 4 C  dx2y2           0.0       0.0       0.0       0.0       0.0       0.1
 4 C  dxy             0.0       0.0       0.3       0.0       0.0       0.0
 5 C  s               0.1       0.0       0.5       0.0       0.0       0.1
 5 C  pz              0.1       1.3       0.9       8.9       0.8       2.2
 5 C  px              2.0      10.4       5.4       2.9       0.3       3.9
 5 C  py              6.4       0.7      10.7       3.5       1.1       1.1
 5 C  dxz             0.0       0.0       0.1       0.1       0.2       0.0
 5 C  dx2y2           0.0       0.0       0.1       0.0       0.0       0.1
 5 C  dxy             0.2       0.0       0.0       0.0       0.1       0.0
 6 C  s               0.1       0.1       0.5       0.1       0.5       0.0
 6 C  pz              1.7       2.2       1.0       4.7       0.5       2.3
 6 C  px              0.2       0.6       5.1       6.6       1.0       0.8
 6 C  py              3.2       2.0      10.5       1.6       3.0       1.7
 6 C  dxy             0.2       0.0       0.0       0.0       0.1       0.0
 7 H  s               1.8       7.9       0.0       4.6       1.6       2.2
 7 H  px              0.0       0.2       0.0       0.1       0.0       0.0
 8 H  s               1.7       7.9       0.0       4.6       1.6       2.2
 8 H  px              0.0       0.2       0.0       0.1       0.0       0.0
 9 H  s              11.7       0.0       0.0       0.0       9.2       0.5
 9 H  pz              0.2       0.0       0.0       0.0       0.0       0.1
 9 H  py              0.0       0.1       0.0       0.1       0.0       0.0
10 H  s               0.1       0.0       0.0       0.0       7.2       0.1
11 H  s               0.6       0.2       0.1       0.8       0.0       1.7
11 H  px              0.0       0.0       0.0       0.1       0.0       0.0
12 H  s               2.2       0.6       6.2       0.0       1.1       0.0
13 H  s               3.9       0.8       6.4       0.6       0.5       0.2
14 H  s               0.1       2.2       0.1       2.7       1.2       2.8
14 H  px              0.0       0.0       0.0       0.1       0.0       0.0
15 H  s               0.1       0.0       0.0       0.0       4.3       9.5
15 H  pz              0.0       0.0       0.0       0.0       0.0       0.1
15 H  px              0.0       0.0       0.0       0.0       0.1       0.0
15 H  py              0.0       0.1       0.0       0.0       0.0       0.0
16 H  s               1.3       0.0       0.0       0.0       8.9       0.0
17 H  s               4.0       0.8       6.4       0.6       0.5       0.2
18 H  s               0.1       2.2       0.1       2.6       1.2       2.8
18 H  px              0.0       0.0       0.0       0.1       0.0       0.0
19 H  s               0.6       0.2       0.1       0.8       0.0       1.7
19 H  px              0.0       0.0       0.0       0.1       0.0       0.0
20 H  s               2.3       0.6       6.2       0.0       1.1       0.0

                     24        25        26        27        28        29   
                  -0.30108  -0.27648  -0.25963  -0.25913   0.08104   0.10749
                   2.00000   2.00000   2.00000   2.00000   0.00000   0.00000
                  --------  --------  --------  --------  --------  --------
 0 C  s               0.0       0.4       0.0       0.0      12.4       1.5
 0 C  pz              0.0      11.8       1.0       0.0       0.9       4.4
 0 C  px              0.0       1.5       0.6       0.0       0.3       1.0
 0 C  py              6.2       0.0       0.0       1.4       0.0       0.0
 0 C  dz2             0.0       0.0       0.2       0.0       0.2       0.5
 0 C  dxz             0.0       0.1       0.1       0.0       0.2       0.1
 0 C  dxy             0.2       0.0       0.0       0.2       0.0       0.0
 1 C  s               0.0       0.1       0.1       0.0       4.0       2.1
 1 C  pz              0.0       6.8       4.1       0.0       1.5       4.0
 1 C  px              0.0       3.3       7.9       0.0       2.9       2.3
 1 C  py              2.9       0.0       0.0      15.8       0.0       0.0
 1 C  dz2             0.0       0.1       0.1       0.0       0.0       0.7
 1 C  dxz             0.0       0.3       0.4       0.0       0.4       0.5
 1 C  dx2y2           0.0       0.1       0.3       0.0       0.2       0.0
 1 C  dxy             0.1       0.0       0.0       0.4       0.0       0.0
 2 C  s               0.1       0.1       0.0       0.2       5.3       2.6
 2 C  pz             10.2       4.0       2.4       0.0       1.1       4.5
 2 C  px              2.9       3.1       9.0       0.4       0.2       1.4
 2 C  py              0.0       0.1       0.3      11.0       1.5       0.6
 2 C  dz2             0.3       0.4       0.0       0.0       0.0       0.8
 2 C  dxz             0.1       0.1       0.2       0.0       0.2       0.0
 2 C  dx2y2           0.0       0.0       0.1       0.0       0.0       0.0
 2 C  dxy             0.0       0.0       0.0       0.5       0.4       0.0
 3 C  s               0.1       0.2       0.1       0.1       5.3       1.8
 3 C  pz              6.6       4.4       3.3       0.1       1.4       6.4
 3 C  px              1.1       2.5       8.0       0.2       0.0       2.3
 3 C  py              1.1       0.2       0.1       9.4       0.8       0.3
 3 C  dz2             0.3       0.4       0.0       0.0       0.0       0.9
 3 C  dxz             0.0       0.1       0.2       0.0       0.0       0.0
 3 C  dxy             0.0       0.0       0.0       0.5       0.5       0.0
 4 C  s               0.0       0.4       0.0       0.0       4.9       0.5
 4 C  pz              0.0       2.6       2.8       0.0       0.4       5.1
 4 C  px              0.0       3.5       5.1       0.0       1.2       0.8
 4 C  py              6.5       0.0       0.0      11.5       0.0       0.0
 4 C  dz2             0.0       0.2       0.0       0.0       0.0       0.0
 4 C  dxz             0.0       0.1       0.3       0.0       0.2       0.5
 4 C  dx2y2           0.0       0.1       0.3       0.0       0.2       0.1
 4 C  dxy             0.1       0.0       0.0       0.2       0.0       0.0
 5 C  s               0.1       0.2       0.1       0.1       5.3       1.8
 5 C  pz              6.6       4.4       3.3       0.1       1.4       6.4
 5 C  px              1.1       2.5       8.0       0.1       0.0       2.3
 5 C  py              1.1       0.2       0.1       9.4       0.8       0.3
 5 C  dz2             0.3       0.4       0.0       0.0       0.0       0.9
 5 C  dxz             0.0       0.1       0.2       0.0       0.0       0.0
 5 C  dxy             0.0       0.0       0.0       0.5       0.5       0.0
 6 C  s               0.1       0.1       0.0       0.2       5.3       2.6
 6 C  pz             10.2       4.0       2.4       0.0       1.1       4.5
 6 C  px              2.9       3.1       9.0       0.4       0.2       1.4
 6 C  py              0.0       0.1       0.3      11.0       1.5       0.6
 6 C  dz2             0.3       0.4       0.0       0.0       0.0       0.8
 6 C  dxz             0.1       0.1       0.2       0.0       0.2       0.0
 6 C  dx2y2           0.0       0.0       0.1       0.0       0.0       0.0
 6 C  dxy             0.0       0.0       0.0       0.5       0.4       0.0
 7 H  s               2.8       0.1       0.4       1.0       1.8       0.1
 7 H  pz              0.0       0.1       0.0       0.0       0.1       0.0
 7 H  px              0.0       0.0       0.0       0.0       0.1       0.0
 7 H  py              0.0       0.0       0.0       0.0       0.7       0.0
 8 H  s               2.8       0.1       0.4       1.0       1.8       0.1
 8 H  pz              0.0       0.1       0.0       0.0       0.1       0.0
 8 H  px              0.0       0.0       0.0       0.0       0.1       0.0
 8 H  py              0.0       0.0       0.0       0.0       0.7       0.0
 9 H  s               0.0       1.3       2.0       0.0       2.0       3.2
 9 H  pz              0.0       0.0       0.0       0.0       0.3       1.4
 9 H  px              0.0       0.2       0.0       0.0       0.8       0.2
10 H  s               0.0       1.0      10.7       0.0       2.2       3.1
10 H  pz              0.0       0.0       0.1       0.0       0.5       1.4
10 H  px              0.0       0.1       0.0       0.0       0.7       0.0
10 H  py              0.0       0.0       0.0       0.2       0.0       0.0
11 H  s               8.4       6.2       0.1       0.0       1.5       2.0
11 H  pz              0.1       0.0       0.0       0.0       0.4       1.3
11 H  px              0.0       0.0       0.1       0.0       0.2       0.0
11 H  py              0.0       0.0       0.0       0.1       0.1       0.0
12 H  s               1.7       1.5       1.3       5.2       2.4       0.5
12 H  pz              0.1       0.0       0.0       0.0       0.1       0.0
12 H  px              0.0       0.0       0.1       0.1       0.4       0.0
12 H  py              0.1       0.0       0.0       0.0       0.4       0.0
13 H  s               0.0       1.5       1.3       5.8       2.0       0.9
13 H  px              0.0       0.0       0.0       0.1       0.3       0.0
13 H  py              0.0       0.0       0.0       0.0       0.3       0.1
14 H  s               5.6       5.5       0.2       0.1       1.4       3.5
14 H  pz              0.0       0.0       0.0       0.0       0.4       1.8
14 H  px              0.0       0.0       0.1       0.0       0.2       0.0
14 H  py              0.0       0.0       0.0       0.1       0.1       0.0
15 H  s               0.0       4.6       0.6       0.0       0.8       0.3
15 H  pz              0.0       0.0       0.0       0.0       0.4       0.0
15 H  px              0.0       0.0       0.1       0.0       0.0       0.3
15 H  py              0.1       0.0       0.0       0.1       0.0       0.0
16 H  s               0.0       0.0       7.5       0.0       2.0       1.0
16 H  pz              0.0       0.0       0.0       0.0       0.3       0.4
16 H  px              0.0       0.0       0.0       0.0       0.3       0.1
16 H  py              0.1       0.0       0.0       0.1       0.0       0.0
17 H  s               0.0       1.5       1.3       5.8       2.0       0.9
17 H  px              0.0       0.0       0.0       0.1       0.3       0.0
17 H  py              0.0       0.0       0.0       0.0       0.3       0.1
18 H  s               5.7       5.5       0.2       0.1       1.4       3.5
18 H  pz              0.0       0.0       0.0       0.0       0.4       1.8
18 H  px              0.0       0.0       0.1       0.0       0.2       0.0
18 H  py              0.0       0.0       0.0       0.1       0.1       0.0
19 H  s               8.3       6.2       0.1       0.0       1.5       2.0
19 H  pz              0.1       0.0       0.0       0.0       0.4       1.3
19 H  px              0.0       0.0       0.1       0.0       0.2       0.0
19 H  py              0.0       0.0       0.0       0.1       0.1       0.0
20 H  s               1.7       1.5       1.3       5.2       2.4       0.5
20 H  pz              0.1       0.0       0.0       0.0       0.1       0.0
20 H  px              0.0       0.0       0.1       0.1       0.4       0.0
20 H  py              0.1       0.0       0.0       0.0       0.4       0.0

                     30        31        32        33        34        35   
                   0.11435   0.11668   0.12337   0.13336   0.13666   0.15473
                   0.00000   0.00000   0.00000   0.00000   0.00000   0.00000
                  --------  --------  --------  --------  --------  --------
 0 C  s               0.0       0.6       7.5       0.0       9.9       3.5
 0 C  pz              0.0       1.2       0.4       0.0      13.3      14.3
 0 C  px              0.0       3.8       2.2       0.0       8.2       0.9
 0 C  py              7.1       0.0       0.0       6.6       0.0       0.0
 0 C  dz2             0.0       0.4       0.0       0.0       0.1       0.1
 0 C  dxz             0.0       0.1       0.2       0.0       0.6       0.9
 0 C  dx2y2           0.0       0.4       0.0       0.0       0.3       0.2
 0 C  dxy             0.9       0.0       0.0       0.0       0.0       0.0
 1 C  s               0.0       3.1       4.2       0.0       9.1       0.4
 1 C  pz              0.0       5.2       1.7       0.0       2.3       0.5
 1 C  px              0.0       0.2       6.4       0.0       0.1       6.2
 1 C  py              2.8       0.0       0.0       6.3       0.0       0.0
 1 C  dz2             0.0       0.2       0.2       0.0       0.0       0.3
 1 C  dxz             0.0       0.6       0.1       0.0       0.5       0.1
 1 C  dyz             0.4       0.0       0.0       0.1       0.0       0.0
 1 C  dx2y2           0.0       0.0       0.2       0.0       0.0       0.6
 1 C  dxy             0.2       0.0       0.0       0.5       0.0       0.0
 2 C  s               0.4       1.3       1.7      10.4       0.2       0.3
 2 C  pz              3.3       1.3       0.2       4.2       0.0       3.6
 2 C  px              1.7       2.6       5.3       1.9       0.7       1.1
 2 C  py              0.9       1.2       1.5       7.7       5.5       6.5
 2 C  dz2             0.0       0.0       0.2       0.0       0.0       0.2
 2 C  dxz             0.8       0.0       0.0       0.2       0.1       0.4
 2 C  dyz             0.0       0.5       0.1       0.0       0.2       0.1
 2 C  dx2y2           0.1       0.0       0.4       0.1       0.1       0.3
 2 C  dxy             0.0       0.1       0.0       0.0       0.9       0.0
 3 C  s              11.7       0.8       3.1       0.5       0.4       0.5
 3 C  pz              0.6       0.4       0.5       5.1       0.4       0.5
 3 C  px              0.3       4.5       0.8       2.3       2.6       1.4
 3 C  py              5.6       4.4       8.4       1.3       0.3       1.3
 3 C  dxz             0.0       0.0       0.0       0.8       0.0       0.2
 3 C  dyz             0.0       0.4       0.0       0.0       0.2       0.0
[...]
 4 C  pz              0.2       0.0       6.7       0.5       0.0       0.0
 4 C  px              3.7       0.0       2.8       0.4       0.0       0.0
 4 C  py              0.0       0.7       0.0       0.0       0.0       0.0
 4 C  dz2             4.7       0.0       0.8       0.0       0.0       0.0
 4 C  dxz             0.0       0.0      11.4       0.2       0.0       0.0
 4 C  dx2y2           0.8       0.0       1.6       0.0       0.0       0.0
 4 C  dxy             0.0       2.2       0.0       0.0       0.0       0.0
 5 C  s               0.9       0.1       0.2       0.2       0.0      27.3
 5 C  pz              1.7       0.4       0.5       0.2       0.0       0.0
 5 C  px              0.1       0.5       0.1       1.0       0.0       0.0
 5 C  py              1.0       1.8       0.2       1.5       0.0       0.0
 5 C  dz2             3.0       0.4       0.3       1.6       0.0       0.0
 5 C  dxz             1.5       0.0       1.7       0.1       0.0       0.0
 5 C  dyz             0.1       0.3       0.0       0.0       0.0       0.0
 5 C  dx2y2           0.2       0.1       0.2       0.6       0.0       0.0
 5 C  dxy             0.6       3.9       0.5       1.3       0.0       0.0
 6 C  s               0.2       0.1       0.5       0.3      23.0       0.0
 6 C  pz              1.7       1.1       0.0       0.2       0.0       0.0
 6 C  px              0.2       0.8       0.7       0.9       0.0       0.0
 6 C  py              0.2       3.1       2.1       0.2       0.0       0.0
 6 C  dz2             2.4       1.4       0.4       1.9       0.0       0.0
 6 C  dxz             1.9       0.2       0.4       0.2       0.0       0.0
 6 C  dyz             0.0       0.3       0.1       0.0       0.0       0.0
 6 C  dx2y2           0.1       0.1       0.2       1.0       0.0       0.0
 6 C  dxy             0.5       5.9       2.0       0.2       0.0       0.0
 7 H  s               0.1       0.0       0.1       0.0       0.0       0.0
 7 H  py              0.5       0.0       0.1       0.1       0.0       0.0
 8 H  s               0.2       0.0       0.1       0.0       0.0       0.0
 8 H  py              0.5       0.0       0.1       0.1       0.0       0.0
 9 H  s               0.0       0.0       0.0       0.1       0.0       0.0
 9 H  pz              0.1       0.0       0.1       0.4       0.0       0.0
 9 H  py              0.0       0.1       0.0       0.0       0.0       0.0
10 H  s               0.6       0.0       0.1       7.3       0.0       0.0
10 H  pz              0.9       0.0       0.3       9.8       0.0       0.0
10 H  px              0.5       0.0       0.3       8.1       0.0       0.0
11 H  s               2.3       1.1       0.1       0.3       0.0       0.0
11 H  pz              5.5       2.0       0.1       0.5       0.0       0.0
11 H  px              0.5       0.1       0.0       0.1       0.0       0.0
11 H  py              0.3       0.3       0.2       0.0       0.0       0.0
12 H  s               1.0       3.5       1.6       0.2       0.0       0.0
12 H  px              0.9       2.6       1.5       0.2       0.0       0.0
12 H  py              1.4       6.7       2.6       0.3       0.0       0.0
13 H  s               0.0       2.2       0.1       1.6       0.0       0.0
13 H  px              0.0       1.4       0.0       1.5       0.0       0.0
13 H  py              0.1       4.5       0.1       2.2       0.0       0.0
14 H  s               2.0       0.4       0.5       0.6       0.0       0.0
14 H  pz              4.8       0.6       1.3       1.1       0.0       0.0
14 H  px              0.6       0.0       0.1       0.1       0.0       0.0
14 H  py              0.0       0.1       0.1       0.3       0.0       0.0
15 H  s               1.0       0.0       3.4       0.2       0.0       0.0
15 H  pz              3.4       0.0       4.4       0.3       0.0       0.0
15 H  px              0.1       0.0       5.1       0.0       0.0       0.0
16 H  s               0.4       0.0       5.9       0.1       0.0       0.0
16 H  pz              1.0       0.0       6.3       0.0       0.0       0.0
16 H  px              0.3       0.0       7.5       0.8       0.0       0.0
17 H  s               0.0       2.2       0.1       1.6       0.0       0.0
17 H  pz              0.1       0.0       0.0       0.0       0.0       0.0
17 H  px              0.0       1.4       0.0       1.5       0.0       0.0
17 H  py              0.0       4.5       0.1       2.2       0.0       0.0
18 H  s               1.6       0.4       0.5       0.6       0.0       0.0
18 H  pz              3.8       0.6       1.3       1.1       0.0       0.0
18 H  px              0.6       0.0       0.1       0.1       0.0       0.0
18 H  py              0.0       0.1       0.1       0.3       0.0       0.0
19 H  s               1.9       1.1       0.1       0.3       0.0       0.0
19 H  pz              4.5       2.0       0.1       0.5       0.0       0.0
19 H  px              0.4       0.1       0.0       0.1       0.0       0.0
19 H  py              0.2       0.3       0.2       0.0       0.0       0.0
20 H  s               0.7       3.5       1.6       0.2       0.0       0.0
20 H  px              0.6       2.6       1.4       0.2       0.0       0.0
20 H  py              1.0       6.7       2.5       0.3       0.0       0.0

                    198       199       200       201       202   
                  22.04378  22.10939  22.15429  22.18825  22.23963
                   0.00000   0.00000   0.00000   0.00000   0.00000
                  --------  --------  --------  --------  --------
 0 C  s              37.1       0.0      12.7       0.0      16.4
 1 C  s              15.7       0.0      16.8       0.0      54.2
 2 C  s               9.1      25.7      11.5      24.1       6.3
 3 C  s              14.3      24.0       5.7      25.8       2.7
 4 C  s               0.3       0.0      35.7       0.0      11.2
 5 C  s              14.3      24.1       5.6      25.8       2.7
 6 C  s               9.0      25.8      11.5      24.1       6.2


                      *****************************
                      * MAYER POPULATION ANALYSIS *
                      *****************************

  NA   - Mulliken gross atomic population
  ZA   - Total nuclear charge
  QA   - Mulliken gross atomic charge
  VA   - Mayer's total valence
  BVA  - Mayer's bonded valence
  FA   - Mayer's free valence

  ATOM       NA         ZA         QA         VA         BVA        FA
  0 C      6.5345     6.0000    -0.5345     3.8239     3.8239    -0.0000
  1 C      5.9722     6.0000     0.0278     3.4774     3.4774    -0.0000
  2 C      6.3271     6.0000    -0.3271     3.6154     3.6154    -0.0000
  3 C      6.3160     6.0000    -0.3160     3.6857     3.6857     0.0000
  4 C      6.2674     6.0000    -0.2674     3.6250     3.6250    -0.0000
  5 C      6.3160     6.0000    -0.3160     3.6858     3.6858    -0.0000
  6 C      6.3271     6.0000    -0.3271     3.6155     3.6155    -0.0000
  7 H      0.8526     1.0000     0.1474     0.9642     0.9642    -0.0000
  8 H      0.8526     1.0000     0.1474     0.9642     0.9642     0.0000
  9 H      0.8454     1.0000     0.1546     0.9603     0.9603    -0.0000
 10 H      0.8519     1.0000     0.1481     0.9551     0.9551    -0.0000
 11 H      0.8527     1.0000     0.1473     0.9648     0.9648    -0.0000
 12 H      0.8543     1.0000     0.1457     0.9637     0.9637    -0.0000
 13 H      0.8551     1.0000     0.1449     0.9589     0.9589     0.0000
 14 H      0.8490     1.0000     0.1510     0.9630     0.9630     0.0000
 15 H      0.8606     1.0000     0.1394     0.9677     0.9677    -0.0000
 16 H      0.8541     1.0000     0.1459     0.9592     0.9592     0.0000
 17 H      0.8551     1.0000     0.1449     0.9589     0.9589     0.0000
 18 H      0.8490     1.0000     0.1510     0.9630     0.9630    -0.0000
 19 H      0.8527     1.0000     0.1473     0.9648     0.9648    -0.0000
 20 H      0.8543     1.0000     0.1457     0.9637     0.9637    -0.0000

  Mayer bond orders larger than 0.100000
B(  0-C ,  1-C ) :   0.8990 B(  0-C ,  7-H ) :   0.9730 B(  0-C ,  8-H ) :   0.9730 
B(  0-C ,  9-H ) :   0.9842 B(  1-C ,  2-C ) :   0.9314 B(  1-C ,  6-C ) :   0.9314 
B(  1-C , 10-H ) :   0.9358 B(  2-C ,  3-C ) :   0.9053 B(  2-C , 11-H ) :   0.9774 
B(  2-C , 12-H ) :   0.9540 B(  3-C ,  4-C ) :   0.9083 B(  3-C , 13-H ) :   0.9385 
B(  3-C , 14-H ) :   1.0010 B(  4-C ,  5-C ) :   0.9083 B(  4-C , 15-H ) :   0.9925 
B(  4-C , 16-H ) :   0.9444 B(  5-C ,  6-C ) :   0.9053 B(  5-C , 17-H ) :   0.9386 
B(  5-C , 18-H ) :   1.0010 B(  6-C , 19-H ) :   0.9774 B(  6-C , 20-H ) :   0.9540 


-------
TIMINGS
-------

Total SCF time: 0 days 0 hours 0 min 19 sec 

Total time                  ....      19.682 sec
Sum of individual times     ....      19.171 sec  ( 97.4%)

SCF preparation             ....       0.184 sec  (  0.9%)
Fock matrix formation       ....      18.214 sec  ( 92.5%)
  Startup                   ....       0.048 sec  (  0.3% of F)
  Split-RI-J                ....       3.034 sec  ( 16.7% of F)
  XC integration            ....      14.784 sec  ( 81.2% of F)
    XC Preparation          ....       0.000 sec  (  0.0% of XC)
    Basis function eval.    ....       2.385 sec  ( 16.1% of XC)
    Density eval.           ....       5.005 sec  ( 33.9% of XC)
    XC-Functional eval.     ....       1.558 sec  ( 10.5% of XC)
    XC-Potential eval.      ....       4.888 sec  ( 33.1% of XC)
Diagonalization             ....       0.000 sec  (  0.0%)
Density matrix formation    ....       0.151 sec  (  0.8%)
Total Energy calculation    ....       0.021 sec  (  0.1%)
Population analysis         ....       0.120 sec  (  0.6%)
Orbital Transformation      ....       0.053 sec  (  0.3%)
Orbital Orthonormalization  ....       0.000 sec  (  0.0%)
DIIS solution               ....       0.370 sec  (  1.9%)
  MO trafo                  ....       0.000 sec  (  0.0 % of DIIS)
  Orb grad                  ....       0.000 sec  (  0.0 % of DIIS)
  Energy W gradient         ....       0.000 sec  (  0.0 % of DIIS)
  DIIS error                ....       0.007 sec  (  2.0 % of DIIS)
  DIIS work                 ....       0.320 sec  ( 86.5 % of DIIS)
  Form Q                    ....       0.000 sec  (  0.0 % of DIIS)
  Form QpQm                 ....       0.000 sec  (  0.0 % of DIIS)
  Exp/Cayley                ....       0.000 sec  (  0.0 % of DIIS)
  Orb update                ....       0.000 sec  (  0.0 % of DIIS)
  Wake-sleep                ....       0.014 sec  (  3.7 % of DIIS)
SOSCF solution              ....       0.057 sec  (  0.3%)
  MO trafo                  ....       0.046 sec  ( 80.8 % of SOSCF)
  Orb grad                  ....       0.001 sec  (  1.0 % of SOSCF)
  Rot update                ....       0.000 sec  (  0.1 % of SOSCF)
  Step                      ....       0.010 sec  ( 18.0 % of SOSCF)
Finished LeanSCF after  19.8 sec

Maximum memory used throughout the entire LEANSCF-calculation: 23.5 MB


-------------------------------------------------------------------------------
                          DFT DISPERSION CORRECTION                            
                                                                               
                                DFTD4 V3.4.0                                   
-------------------------------------------------------------------------------
The R2SCAN3C composite method is recognized
Using three-body term ABC
Active option DFTDOPT                   ...         5   

-------------------------   ----------------
Dispersion correction           -0.006260749
-------------------------   ----------------

------------------   -----------------
gCP correction             0.009136425
------------------   -----------------

-------------------------   --------------------
FINAL SINGLE POINT ENERGY      -275.091916750571
-------------------------   --------------------


------------------------------------------------------------------------------
                              ORCA PROPERTY CALCULATIONS
------------------------------------------------------------------------------

GBWName                                 ... sp_gas.gbw
Number of atoms                         ...     21
Number of basis functions               ...    203
Max core memory                         ...   1024 MB

Electric properties:
Dipole moment                           ... YES
Quadrupole moment                       ...  NO
Static polarizability (Dipole/Dipole)   ...  NO
Static polarizability (Dipole/Quad.)    ...  NO
Static polarizability (Quad./Quad.)     ...  NO
Static polarizability (Velocity)        ...  NO

Atomic electric properties:
Dipole moment                           ...  NO
Quadrupole moment                       ...  NO
Static polarizability                   ...  NO

Choice of electric origin               ... Center of mass
Position of electric origin             ...     0.000001    -0.000000    -0.000002

General magnetic properties:
Magnetizability                         ...  NO

EPR properties:
g-Tensor (aka g-matrix)                 ...  NO
Zero-Field splitting spin-orbit         ...  NO
Zero-field splitting spin-spin          ...  NO
Hyperfine couplings                     ...  NO (   0 nuclei)
Quadrupole couplings                    ...  NO (   0 nuclei)
Contact density                         ...  NO (   0 nuclei)

NMR properties:
Chemical shifts                         ...  NO (   0 nuclei)
Spin-rotation constants                 ...  NO (   0 nuclei)
Spin-spin couplings                     ...  NO (   0 nuclei,    0 pairs)

Choice of magnetic origin               ... GIAO
Position of magnetic origin             ...     0.000000     0.000000     0.000000

Properties with geometric perturbations:
SCF Hessian                             ...  NO
IR spectrum                             ...  NO
VCD spectrum                            ...  NO
X-ray spectroscopy properties:
SCF XES/XAS/RIXS spectra                ...  NO


-------------
DIPOLE MOMENT
-------------

Method             : SCF
Type of density    : Electron Density
Multiplicity       :   1
Irrep              :   0
Energy             :  -275.0947924270714111 Eh
Relativity type    : 
Basis              : AO
                                X                 Y                 Z
Electronic contribution:     -0.716734745       0.000388992       0.925071919
Nuclear contribution   :      0.713942384      -0.000415486      -0.893171125
                        -----------------------------------------
Total Dipole Moment    :     -0.002792360      -0.000026494       0.031900794
                        -----------------------------------------
Magnitude (a.u.)       :      0.032022783
Magnitude (Debye)      :      0.081395446



--------------------
Rotational spectrum 
--------------------
 
Rotational constants in cm-1:             0.118076             0.085301             0.064980 
Rotational constants in MHz :          3539.831033          2557.271834          1948.059989 

Dipole components along the rotational axes: 
x,y,z [a.u.] :     0.001692    -0.000027     0.031978 
x,y,z [Debye]:     0.004301    -0.000069     0.081282 

 

Dipole moment calculation done in   0.0 sec 

Maximum memory used throughout the entire PROP-calculation: 13.1 MB

--------------------------------
SUGGESTED CITATIONS FOR THIS RUN
--------------------------------

Below you find a list of papers that are relevant to this ORCA run
We neither can nor want to force you to cite these papers, but we appreciate if you do
You receive ORCA, which is the product of decades of hard work by many enthusiastic individuals, for free
The only thing we kindly ask in return is that you cite our papers,
We deeply appreciate it, if you show your appreciation for ORCA by not just citing the generic ORCA reference.

Please note that relegating all ORCA citations to the supporting information does *not* help us.
SI sections are not indexed - citations you put there will not count into any citation statistics
But we need these citations in order to attract the funding resources that allow us to do what we are doing

Therefore, if you are a happy ORCA user, please consider citing a few of the papers listed below in the main body of your paper

In addition to the list printed below, the program has created the file sp_gas.bibtex that contains the list in bibtex format
You can import this file easily into all common literature databanks and citation aid programs


List of essential papers. We consider these as the minimum necessary citations

  1. Neese,F.
     Software update: the ORCA program system, version 5.0
     WIRES Comput. Molec. Sci., 2022 12(1)e1606
     doi.org/10.1002/wcms.1606
  2. Grimme,S.; Hansen,A.; Ehlert,S.; Mewes,J.
     r2SCAN-3c: A 'Swiss army knife' composite electronic-structure method
     J. Chem. Phys., 2021 154 064103
     doi.org/10.1063/5.0040021

List of papers to cite with high priority. The work reported in these papers was absolutely
necessary for this run to complete.
Our perspective: the developers of density functionals and basis sets usually get cited in chemistry papers
Good! But without the algorithms to do something with them, the functionals or basis sets would not do anything.
Hence, in our opinion, the algorithm design and method developments papers are equally worthy of getting cited

  1. Neese,F.
     An improvement of the resolution of the identity approximation for the formation of the Coulomb matrix
     J. Comp. Chem., 2003 24(14)1740-1747
     doi.org/10.1002/jcc.10318
  2. Neese,F.
     The SHARK Integral Generation and Digestion System
     J. Comp. Chem., 2022  1-16
     doi.org/10.1002/jcc.26942
  3. Lehtola,S.; Steigemann,C.; Oliveira,M.; Marques,M.
     Recent developments in Libxc - A comprehensive library of functionals for density functional theory
     Software X, 2018 7 
     doi.org/10.1016/j.softx.2017.11.002
  4. Caldeweyher,E.; Bannwarth,C.; Grimme,S.
     Extension of the D3 dispersion coefficient model
     J. Chem. Phys., 2017 147 034112-XXXX
     doi.org/10.1063/1.4993215
  5. Caldeweyher,E.; Ehlert,S.; Hansen,A.; Neugebauer,H.; Spicher,S.; Bannwarth,C.; Grimme,S.
     A generally applicable atomic-charge dependent London dispersion correction
     J. Chem. Phys., 2019 150 154122-XXXX
     doi.org/10.1063/1.5090222
  6. Caldeweyher,E.; Mewes,J.; Ehlert,S.; Grimme,S.
     Extension and evaluation of the D4 London-dispersion model for periodic systems
     Phys. Chem. Chem. Phys., 2020 22(16)8499-8512
     doi.org/10.1039/D0CP00502A

List of suggested additional citations. These are papers that are important in the 'surrounding' of 
of this run, or papers that preceded the highly important papers. If you like your results we are grateful for a citation.

  1. Neese,F.
     The ORCA program system
     WIRES Comput. Molec. Sci., 2012 2(1)73-78
     doi.org/10.1002/wcms.81
  2. Neese,F.
     Software update: the ORCA program system, version 4.0
     WIRES Comput. Molec. Sci., 2018 8(1)1-6
     doi.org/10.1002/wcms.1327
  3. Neese,F.; Wennmohs,F.; Becker,U.; Riplinger,C.
     The ORCA quantum chemistry program package
     J. Chem. Phys., 2020 152 Art. No. L224108
     doi.org/10.1063/5.0004608

List of optional additional citations

  1. Neese,F.
     Approximate second-order SCF convergence for spin unrestricted wavefunctions
     Chem. Phys. Lett., 2000 325(1-3)93-98
     doi.org/10.1016/s0009-2614(00)00662-x

Timings for individual modules:

Sum of individual times          ...       21.438 sec (=   0.357 min)
Startup calculation              ...        1.254 sec (=   0.021 min)   5.8 %
SCF iterations                   ...       20.072 sec (=   0.335 min)  93.6 %
Property calculations            ...        0.112 sec (=   0.002 min)   0.5 %
                             ****ORCA TERMINATED NORMALLY****
TOTAL RUN TIME: 0 days 0 hours 0 minutes 22 seconds 163 msec
