
                                 *****************
                                 * O   R   C   A *
                                 *****************

                                            #,                                       
                                            ###                                      
                                            ####                                     
                                            #####                                    
                                            ######                                   
                                           ########,                                 
                                     ,,################,,,,,                         
                               ,,#################################,,                 
                          ,,##########################################,,             
                       ,#########################################, ''#####,          
                    ,#############################################,,   '####,        
                  ,##################################################,,,,####,       
                ,###########''''           ''''###############################       
              ,#####''   ,,,,##########,,,,          '''####'''          '####       
            ,##' ,,,,###########################,,,                        '##       
           ' ,,###''''                  '''############,,,                           
         ,,##''                                '''############,,,,        ,,,,,,###''
      ,#''                                            '''#######################'''  
     '                                                          ''''####''''         
             ,#######,   #######,   ,#######,      ##                                
            ,#'     '#,  ##    ##  ,#'     '#,    #''#        ,####,   ,####,        
            ##       ##  ##   ,#'  ##            #'  '#       #'       #'  '#        
            ##       ##  #######   ##           ,######,      #####,   #    #        
            '#,     ,#'  ##    ##  '#,     ,#' ,#      #,     #,   #   #,  ,#        
             '#######'   ##     ##  '#######'  #'      '#     '####' # '####'        



                #########################################################
                #                        -***-                          #
                #          Department of theory and spectroscopy        #
                #                                                       #
                #                      Frank Neese                      #
                #                                                       #
                #     Directorship, Architecture, Infrastructure        #
                #                    SHARK, DRIVERS                     #
                #        Core code/Algorithms in most modules           #
                #                                                       #
                #        Max Planck Institute fuer Kohlenforschung      #
                #                Kaiser Wilhelm Platz 1                 #
                #                 D-45470 Muelheim/Ruhr                 #
                #                      Germany                          #
                #                                                       #
                #                  All rights reserved                  #
                #                        -***-                          #
                #########################################################


                         Program Version 6.0.0  -   RELEASE  -


 With contributions from (in alphabetic order):
   Daniel Aravena         : Magnetic Suceptibility
   Michael Atanasov       : Ab Initio Ligand Field Theory (pilot matlab implementation)
   Alexander A. Auer      : GIAO ZORA, VPT2 properties, NMR spectrum
   Ute Becker             : All parallelization in ORCA, NUMFREQ, NUMCALC
   Giovanni Bistoni       : ED, misc. LED, open-shell LED, HFLD
   Martin Brehm           : Molecular dynamics
   Dmytro Bykov           : pre 5.0 version of the SCF Hessian
   Marcos Casanova-Páez   : Triplet and SCS-CIS(D). UHF-(DLPNO)-IP/EA/STEOM-CCSD. UHF-CVS-IP/STEOM-CCSD
   Vijay G. Chilkuri      : MRCI spin determinant printing, contributions to CSF-ICE
   Pauline Colinet        : FMM embedding
   Dipayan Datta          : RHF DLPNO-CCSD density
   Achintya Kumar Dutta   : EOM-CC, STEOM-CC
   Nicolas Foglia         : Exact transition moments, OPA infrastructure, MCD improvements
   Dmitry Ganyushin       : Spin-Orbit,Spin-Spin,Magnetic field MRCI
   Miquel Garcia          : C-PCM and meta-GGA Hessian, CCSD/C-PCM, Gaussian charge scheme
   Tiago L. C. Gouveia    : GS-ROHF, GS-ROCIS
   Yang Guo               : DLPNO-NEVPT2, F12-NEVPT2, CIM, IAO-localization
   Andreas Hansen         : Spin unrestricted coupled pair/coupled cluster methods
   Ingolf Harden          : AUTO-CI MPn and infrastructure 
   Benjamin Helmich-Paris : MC-RPA, TRAH-(SCF,CASSCF), AVAS, COSX integrals, SCF dyn. polar.
   Lee Huntington         : MR-EOM, pCC
   Robert Izsak           : Overlap fitted RIJCOSX, COSX-SCS-MP3, EOM
   Riya Kayal             : Wick's Theorem for AUTO-CI, AUTO-CI UHF-CCSDT
   Emily Kempfer          : AUTO-CI, RHF CISDT and CCSDT
   Christian Kollmar      : KDIIS, OOCD, Brueckner-CCSD(T), CCSD density, CASPT2, CASPT2-K, improved NEVPT2
   Axel Koslowski         : Symmetry handling
   Simone Kossmann        : Meta GGA functionals, TD-DFT gradient, OOMP2, (MP2 Hessian; deprecated post 5.0)
   Lucas Lang             : DCDCAS
   Marvin Lechner         : AUTO-CI (C++ implementation), FIC-MRCC
   Spencer Leger          : CASSCF response
   Dagmar Lenk            : GEPOL surface, SMD, ORCA-2-JSON
   Dimitrios Liakos       : Extrapolation schemes; Compound Job, initial MDCI parallelization
   Dimitrios Manganas     : Further ROCIS development; embedding schemes. LFT, Crystal Embedding
   Dimitrios Pantazis     : SARC Basis sets
   Anastasios Papadopoulos: AUTO-CI, single reference methods and gradients
   Taras Petrenko         : pre 6.0 DFT Hessian and TD-DFT gradient, (ASA, deprecated), ECA, 1-Electron XAS/XES, NRVS
   Peter Pinski           : DLPNO-MP2, DLPNO-MP2 Gradient
   Christoph Reimann      : Effective Core Potentials
   Marius Retegan         : Local ZFS, SOC
   Christoph Riplinger    : Optimizer, TS searches, QM/MM, DLPNO-CCSD(T), (RO)-DLPNO pert. Triples
   Michael Roemelt        : Original ROCIS implementation
   Masaaki Saitow         : Open-shell DLPNO-CCSD energy and density
   Barbara Sandhoefer     : DKH picture change effects
   Kantharuban Sivalingam : CASSCF convergence/infrastructure, NEVPT2 and variants, FIC-MRCI
   Bernardo de Souza      : ESD, SOC TD-DFT
   Georgi Stoychev        : AutoAux, RI-MP2 NMR, DLPNO-MP2 response, X2C
   Van Anh Tran           : RI-MP2 g-tensors
   Willem Van den Heuvel  : Paramagnetic NMR
   Zikuan Wang            : NOTCH, Electric field optimization 
   Frank Wennmohs         : Technical directorship and infrastructure
   Hang Xu                : AUTO-CI-Response properties 


 We gratefully acknowledge several colleagues who have allowed us to
 interface, adapt or use parts of their codes:
   Stefan Grimme, W. Hujo, H. Kruse, P. Pracht,  : VdW corrections, initial TS optimization,
                  C. Bannwarth, S. Ehlert,         DFT functionals, gCP, sTDA/sTD-DF
                  L. Wittmann, M. Mueller
   Ed Valeev, F. Pavosevic, A. Kumar             : LibInt (2-el integral package), F12 methods
   Garnet Chan, S. Sharma, J. Yang, R. Olivares  : DMRG
   Ulf Ekstrom                                   : XCFun DFT Library
   Mihaly Kallay                                 : mrcc  (arbitrary order and MRCC methods)
   Frank Weinhold                                : gennbo (NPA and NBO analysis)
   Simon Mueller                                 : openCOSMO-RS
   Christopher J. Cramer and Donald G. Truhlar   : smd solvation model
   Lars Goerigk                                  : TD-DFT with DH, B97 family of functionals
   V. Asgeirsson, H. Jonsson                     : NEB implementation
   FAccTs GmbH                                   : IRC, NEB, NEB-TS, DLPNO-Multilevel, CI-OPT
                                                   MM, QMMM, 2- and 3-layer-ONIOM, Crystal-QMMM,
                                                   LR-CPCM, SF, NACMEs, symmetry and pop. for TD-DFT,
                                                   nearIR, NL-DFT gradient (VV10), updates on ESD,
                                                   ML-optimized integration grids, MBIS, APM,
                                                   GOAT, DOCKER, SOLVATOR, interface openCOSMO-RS
   S Lehtola, MJT Oliveira, MAL Marques          : LibXC Library
   Liviu Ungur et al                             : ANISO software


 Your calculation uses the libint2 library for the computation of 2-el integrals
 For citations please refer to: http://libint.valeyev.net

 Your ORCA version has been built with support for libXC version: 6.2.2
 For citations please refer to: https://libxc.gitlab.io

 This ORCA versions uses:
   CBLAS   interface :  Fast vector & matrix operations
   LAPACKE interface :  Fast linear algebra routines
   SCALAPACK package :  Parallel linear algebra routines
   Shared memory     :  Shared parallel matrices
   BLAS/LAPACK       :  OpenBLAS 0.3.27  USE64BITINT DYNAMIC_ARCH NO_AFFINITY SkylakeX SINGLE_THREADED
        Core in use  :  SkylakeX
   Copyright (c) 2011-2014, The OpenBLAS Project


Your calculation utilizes the geometrical counterpoise correction gCP
Please cite in your paper:
H.Kruse, S. Grimme J.Chem.Phys., 136, (2012), 154101 
   

Your calculation utilizes the DFT-NL dispersion correction.
Cite in your paper:
Vydrov, O. A.; Van Voorhis, T. J. Chem. Phys. 2010, 133, 244103
Hujo, W.; Grimme, S. J. Chem. Theory Comput. 2011, 7, 3866 
   

================================================================================

----- Orbital basis set information -----
Your calculation utilizes the basis: def2-TZVP
   F. Weigend and R. Ahlrichs, Phys. Chem. Chem. Phys. 7, 3297 (2005).

----- AuxJ basis set information -----
Your calculation utilizes the auxiliary basis: def2/J
   F. Weigend, Phys. Chem. Chem. Phys. 8, 1057 (2006).

================================================================================
                                        WARNINGS
                       Please study these warnings very carefully!
================================================================================


================================================================================
                                       INPUT FILE
================================================================================
NAME = sp_gas.inp
|  1> ! wb97x-v def2-tzvp def2/J RIJCOSX DEFGRID2 scfconv7 GCP(DFT/TZ) printgap
|  2> %output
|  3>     printlevel normal
|  4> end
|  5> * xyz 0 1
|  6> C 0.8309813333409429 -1.846400614315895 8.334310246774154e-05
|  7> C 1.869283626387273 -0.9224421787859867 5.142756249213362e-05
|  8> C 1.5697997117631273 0.44014558800547826 8.672594816367606e-06
|  9> C 0.2458445941272974 0.8815109445806701 8.153941299968479e-07
| 10> C -0.7593833431941748 -0.07361675770691171 3.618751493073227e-05
| 11> C -0.5008870214064749 -1.4389699955732258 7.675191679157255e-05
| 12> Cl -2.435680071471366 0.47573598499420894 1.3802451206351847e-05
| 13> O 2.5442210204173388 1.4063367501660164 -2.2251723450038314e-05
| 14> H 1.0607984235037058 -2.9068570694026623 0.00011754712052053766
| 15> H 2.9049220599923413 -1.2481117832694457 6.797383678488313e-05
| 16> H 0.024562450781461583 1.9422383564512389 -3.131180780795131e-05
| 17> H -1.308188727106069 -2.160898444051156 0.00010771293850884661
| 18> H 3.413258736216347 0.9797736136482116 -3.141584207902981e-05
| 19> *
| 20> 
| 21>                          ****END OF INPUT****
================================================================================

                       ****************************
                       * Single Point Calculation *
                       ****************************

---------------------------------
CARTESIAN COORDINATES (ANGSTROEM)
---------------------------------
  C      0.830981   -1.846401    0.000083
  C      1.869284   -0.922442    0.000051
  C      1.569800    0.440146    0.000009
  C      0.245845    0.881511    0.000001
  C     -0.759383   -0.073617    0.000036
  C     -0.500887   -1.438970    0.000077
  Cl    -2.435680    0.475736    0.000014
  O      2.544221    1.406337   -0.000022
  H      1.060798   -2.906857    0.000118
  H      2.904922   -1.248112    0.000068
  H      0.024562    1.942238   -0.000031
  H     -1.308189   -2.160898    0.000108
  H      3.413259    0.979774   -0.000031

----------------------------
CARTESIAN COORDINATES (A.U.)
----------------------------
  NO LB      ZA    FRAG     MASS         X           Y           Z
   0 C     6.0000    0    12.011    1.570327   -3.489191    0.000157
   1 C     6.0000    0    12.011    3.532434   -1.743163    0.000097
   2 C     6.0000    0    12.011    2.966492    0.831755    0.000016
   3 C     6.0000    0    12.011    0.464579    1.665814    0.000002
   4 C     6.0000    0    12.011   -1.435027   -0.139116    0.000068
   5 C     6.0000    0    12.011   -0.946539   -2.719259    0.000145
   6 Cl   17.0000    0    35.453   -4.602768    0.899011    0.000026
   7 O     8.0000    0    15.999    4.807881    2.657591   -0.000042
   8 H     1.0000    0     1.008    2.004619   -5.493164    0.000222
   9 H     1.0000    0     1.008    5.489507   -2.358589    0.000128
  10 H     1.0000    0     1.008    0.046416    3.670299   -0.000059
  11 H     1.0000    0     1.008   -2.472118   -4.083506    0.000204
  12 H     1.0000    0     1.008    6.450124    1.851504   -0.000059

--------------------------------
INTERNAL COORDINATES (ANGSTROEM)
--------------------------------
 C      0   0   0     0.000000000000     0.00000000     0.00000000
 C      1   0   0     1.389881593284     0.00000000     0.00000000
 C      2   1   0     1.395111479114   119.26908937     0.00000000
 C      3   2   1     1.395586088911   120.83275020     0.00000000
 C      4   3   2     1.386633381576   118.02719400     0.00000000
 C      5   4   3     1.389607791492   122.81535869     0.00000000
 Cl     5   4   3     1.764017901737   118.31906742   180.00047007
 O      3   2   1     1.372232578520   122.36103837   179.99989186
 H      1   2   3     1.085073172296   119.43727913   180.00005588
 H      2   1   3     1.085636982015   120.87852498   179.99947128
 H      4   3   2     1.083562840951   120.22045589   179.99992571
 H      6   5   4     1.083012802189   121.08396226   179.99975630
 H      8   3   2     0.968081949528   109.09909115     0.00000000

---------------------------
INTERNAL COORDINATES (A.U.)
---------------------------
 C      0   0   0     0.000000000000     0.00000000     0.00000000
 C      1   0   0     2.626495569886     0.00000000     0.00000000
 C      2   1   0     2.636378621816   119.26908937     0.00000000
 C      3   2   1     2.637275504351   120.83275020     0.00000000
 C      4   3   2     2.620357339331   118.02719400     0.00000000
 C      5   4   3     2.625978159483   122.81535869     0.00000000
 Cl     5   4   3     3.333510729617   118.31906742   180.00047007
 O      3   2   1     2.593143765448   122.36103837   179.99989186
 H      1   2   3     2.050491130904   119.43727913   180.00005588
 H      2   1   3     2.051556576865   120.87852498   179.99947128
 H      4   3   2     2.047637018291   120.22045589   179.99992571
 H      6   5   4     2.046597595668   121.08396226   179.99975630
 H      8   3   2     1.829409759800   109.09909115     0.00000000

---------------------
BASIS SET INFORMATION
---------------------
There are 4 groups of distinct atoms

 Group   1 Type C   : 11s6p2d1f contracted to 5s3p2d1f pattern {62111/411/11/1}
 Group   2 Type Cl  : 14s9p3d1f contracted to 5s5p2d1f pattern {73211/51111/21/1}
 Group   3 Type O   : 11s6p2d1f contracted to 5s3p2d1f pattern {62111/411/11/1}
 Group   4 Type H   : 5s1p contracted to 3s1p pattern {311/1}

Atom   0C    basis set group =>   1
Atom   1C    basis set group =>   1
Atom   2C    basis set group =>   1
Atom   3C    basis set group =>   1
Atom   4C    basis set group =>   1
Atom   5C    basis set group =>   1
Atom   6Cl   basis set group =>   2
Atom   7O    basis set group =>   3
Atom   8H    basis set group =>   4
Atom   9H    basis set group =>   4
Atom  10H    basis set group =>   4
Atom  11H    basis set group =>   4
Atom  12H    basis set group =>   4
---------------------------------
AUXILIARY/J BASIS SET INFORMATION
---------------------------------
There are 4 groups of distinct atoms

 Group   1 Type C   : 12s5p4d2f1g contracted to 6s4p3d1f1g pattern {711111/2111/211/2/1}
 Group   2 Type Cl  : 14s5p5d2f1g contracted to 8s4p3d1f1g pattern {71111111/2111/311/2/1}
 Group   3 Type O   : 12s5p4d2f1g contracted to 6s4p3d1f1g pattern {711111/2111/211/2/1}
 Group   4 Type H   : 5s2p1d contracted to 3s1p1d pattern {311/2/1}

Atom   0C    basis set group =>   1
Atom   1C    basis set group =>   1
Atom   2C    basis set group =>   1
Atom   3C    basis set group =>   1
Atom   4C    basis set group =>   1
Atom   5C    basis set group =>   1
Atom   6Cl   basis set group =>   2
Atom   7O    basis set group =>   3
Atom   8H    basis set group =>   4
Atom   9H    basis set group =>   4
Atom  10H    basis set group =>   4
Atom  11H    basis set group =>   4
Atom  12H    basis set group =>   4

Checking for AutoStart:
The File: sp_gas.gbw exists
Trying to determine its content:
     ... Fine, the file contains calculation information
     ... Fine, the calculation information was read
     ... Fine, the file contains a basis set
     ... Fine, the basis set was read
     ... Fine, the file contains a geometry
     ... Fine, the geometry was read
     ... Fine, the file contains a set of orbitals
     ... Fine, the orbitals can be read
     => possible old guess file was deleted
     => GBW file was renamed to GES file
     => GES file is set as startup file
     => Guess is set to MORead
     ... now leaving AutoStart

------------------------------------------------------------------------------
                             ORCA STARTUP CALCULATIONS
                           -- RI-GTO INTEGRALS CHOSEN --
------------------------------------------------------------------------------
------------------------------------------------------------------------------
                   ___                                                        
                  /   \      - P O W E R E D   B Y -                         
                 /     \                                                     
                 |  |  |   _    _      __       _____    __    __             
                 |  |  |  | |  | |    /  \     |  _  \  |  |  /  |          
                  \  \/   | |  | |   /    \    | | | |  |  | /  /          
                 / \  \   | |__| |  /  /\  \   | |_| |  |  |/  /          
                |  |  |   |  __  | /  /__\  \  |    /   |      \           
                |  |  |   | |  | | |   __   |  |    \   |  |\   \          
                \     /   | |  | | |  |  |  |  | |\  \  |  | \   \       
                 \___/    |_|  |_| |__|  |__|  |_| \__\ |__|  \__/        
                                                                              
                      - O R C A' S   B I G   F R I E N D -                    
                                      &                                       
                       - I N T E G R A L  F E E D E R -                       
                                                                              
 v1 FN, 2020, v2 2021, v3 2022-2024                                           
------------------------------------------------------------------------------


----------------------
SHARK INTEGRAL PACKAGE
----------------------

Number of atoms                             ...     13
Number of basis functions                   ...    284
Number of shells                            ...    110
Maximum angular momentum                    ...      3
Integral batch strategy                     ... SHARK/LIBINT Hybrid
RI-J (if used) integral strategy            ... SPLIT-RIJ (Revised 2003 algorithm where possible)
Printlevel                                  ...      1
Contraction scheme used                     ... SEGMENTED contraction
Prescreening option                         ... SCHWARTZ
   Thresh                                   ... 3.000e-11
   Tcut                                     ... 1.000e-12
   Tpresel                                  ... 1.000e-12 
Coulomb Range Separation                    ... NOT USED
Exchange Range Separation                   ... Long Range
   Mu parameter                             ... 3.000e-01
   Scaling (regular/separated)              ... 1.670e-01 8.330e-01
Multipole approximations                    ... NOT USED
Finite Nucleus Model                        ... NOT USED
CABS basis                                  ... NOT available
Auxiliary Coulomb fitting basis             ... AVAILABLE
   # of basis functions in Aux-J            ...    449
   # of shells in Aux-J                     ...    147
   Maximum angular momentum in Aux-J        ...      4
Auxiliary J/K fitting basis                 ... NOT available
Auxiliary Correlation fitting basis         ... NOT available
Auxiliary 'external' fitting basis          ... NOT available

Checking pre-screening integrals            ... done (  0.0 sec) Dimension = 110
Check shell pair data                       ... done (  0.0 sec)
Shell pair information
Shell pair cut-off parameter TPreSel        ...   1.0e-12
Total number of shell pairs                 ...      6105
Shell pairs after pre-screening             ...      5583
Total number of primitive shell pairs       ...     19708
Primitive shell pairs kept                  ...     13429
          la=0 lb=0:   1332 shell pairs
          la=1 lb=0:   1555 shell pairs
          la=1 lb=1:    467 shell pairs
          la=2 lb=0:    827 shell pairs
          la=2 lb=1:    472 shell pairs
          la=2 lb=2:    130 shell pairs
          la=3 lb=0:    406 shell pairs
          la=3 lb=1:    234 shell pairs
          la=3 lb=2:    125 shell pairs
          la=3 lb=3:     35 shell pairs

Calculating one electron integrals          ... done (  0.0 sec)
Calculating RI/J V-Matrix + Cholesky decomp.... done (  0.1 sec)
Calculating Nuclear repulsion               ... done (  0.0 sec) ENN=    395.835712028472 Eh

Diagonalization of the overlap matrix:
Smallest eigenvalue                        ... 1.044e-05
Time for diagonalization                   ...    0.008 sec
Threshold for overlap eigenvalues          ... 1.000e-07
Number of eigenvalues below threshold      ... 0
Time for construction of square roots      ...    0.016 sec
Total time needed                          ...    0.032 sec

-------------------
DFT GRID GENERATION
-------------------

General Integration Accuracy     IntAcc      ... 4.388
Radial Grid Type                 RadialGrid  ... OptM3 with GC (2021)
Angular Grid (max. ang.)         AngularGrid ... 4 (Lebedev-302)
Angular grid pruning method      GridPruning ... 4 (adaptive)
Weight generation scheme         WeightScheme... mBecke (2022)
Basis function cutoff            BFCut       ... 1.0000e-11
Integration weight cutoff        WCut        ... 1.0000e-14
Partially contracted basis set               ... off
Rotationally invariant grid construction     ... off
Angular grids for H and He will be reduced by one unit

Total number of grid points                  ...    65654
Total number of batches                      ...     1031
Average number of points per batch           ...       63
Average number of grid points per atom       ...     5050

--------------------
COSX GRID GENERATION
--------------------

GRIDX 1
-------
General Integration Accuracy     IntAcc      ... 3.816
Radial Grid Type                 RadialGrid  ... OptM3 with GC (2021)
Angular Grid (max. ang.)         AngularGrid ... 1 (Lebedev-50)
Angular grid pruning method      GridPruning ... 4 (adaptive)
Weight generation scheme         WeightScheme... mBecke (2022)
Basis function cutoff            BFCut       ... 1.0000e-11
Integration weight cutoff        WCut        ... 1.0000e-14
Partially contracted basis set               ... on
Rotationally invariant grid construction     ... off
Angular grids for H and He will be reduced by one unit

Total number of grid points                  ...     9407
Total number of batches                      ...       80
Average number of points per batch           ...      117
Average number of grid points per atom       ...      724
UseSFitting                                  ... on

GRIDX 2
-------
General Integration Accuracy     IntAcc      ... 4.020
Radial Grid Type                 RadialGrid  ... OptM3 with GC (2021)
Angular Grid (max. ang.)         AngularGrid ... 2 (Lebedev-110)
Angular grid pruning method      GridPruning ... 4 (adaptive)
Weight generation scheme         WeightScheme... mBecke (2022)
Basis function cutoff            BFCut       ... 1.0000e-11
Integration weight cutoff        WCut        ... 1.0000e-14
Partially contracted basis set               ... on
Rotationally invariant grid construction     ... off
Angular grids for H and He will be reduced by one unit

Total number of grid points                  ...    18467
Total number of batches                      ...      151
Average number of points per batch           ...      122
Average number of grid points per atom       ...     1421
UseSFitting                                  ... on

GRIDX 3
-------
General Integration Accuracy     IntAcc      ... 4.338
Radial Grid Type                 RadialGrid  ... OptM3 with GC (2021)
Angular Grid (max. ang.)         AngularGrid ... 3 (Lebedev-194)
Angular grid pruning method      GridPruning ... 4 (adaptive)
Weight generation scheme         WeightScheme... mBecke (2022)
Basis function cutoff            BFCut       ... 1.0000e-11
Integration weight cutoff        WCut        ... 1.0000e-14
Partially contracted basis set               ... on
Rotationally invariant grid construction     ... off
Angular grids for H and He will be reduced by one unit

Total number of grid points                  ...    41241
Total number of batches                      ...      329
Average number of points per batch           ...      125
Average number of grid points per atom       ...     3172
UseSFitting                                  ... on
Initializing property integral containers    ... done (  0.0 sec)

SHARK setup successfully completed in   2.0 seconds

Maximum memory used throughout the entire STARTUP-calculation: 40.5 MB
-------------------------------------------------------------------------------
                                 ORCA GUESS
                   Start orbitals & Density for SCF / CASSCF
-------------------------------------------------------------------------------

------------
SCF SETTINGS
------------
Hamiltonian:
 Density Functional     Method          .... DFT(GTOs)
 Exchange Functional    Exchange        .... WB97X-V
 Correlation Functional Correlation     .... WB97X-V
 Gradients option       PostSCFGGA      .... off
 Hybrid DFT is turned on
   Fraction HF Exchange ScalHFX         ....  0.167000
   Scaling of DF-GGA-X  ScalDFX         ....  0.000000
   Scaling of DF-GGA-C  ScalDFC         ....  1.000000
   Scaling of DF-LDA-C  ScalLDAC        ....  1.000000
   Perturbative correction              ....  0.000000
 Long-range corrected/Screened/Range-Separated Hybrid DFT is turned on
   Amount of maximum screened exact exchange              ....  0.833000
   Range separation parameter mu (erf(mu*r12)/r12)        ....  0.300000
   NL short-range parameter             ....  6.000000
   NL long-range parameter              ....  0.010000
 RI-approximation to the Coulomb term is turned on
   Number of AuxJ basis functions       .... 449
   RIJ-COSX (HFX calculated with COS-X)).... on


General Settings:
 Integral files         IntName         .... sp_gas
 Hartree-Fock type      HFTyp           .... RHF
 Total Charge           Charge          ....    0
 Multiplicity           Mult            ....    1
 Number of Electrons    NEL             ....   66
 Basis Dimension        Dim             ....  284
 Nuclear Repulsion      ENuc            ....    395.8357120285 Eh

Convergence Acceleration:
 AO-DIIS                CNVDIIS         .... on
   Start iteration      DIISMaxIt       ....    12
   Startup error        DIISStart       ....  0.200000
   # of expansion vecs  DIISMaxEq       ....     5
   Bias factor          DIISBfac        ....   1.050
   Max. coefficient     DIISMaxC        ....  10.000
 MO-DIIS                CNVKDIIS        .... off
 Trust-Rad. Augm. Hess. CNVTRAH         .... auto
   Auto Start mean grad. ratio tolernc. ....  1.125000
   Auto Start start iteration           ....     1
   Auto Start num. interpolation iter.  ....    10
   Max. Number of Micro iterations      ....    24
   Max. Number of Macro iterations      .... Maxiter - #DIIS iter
   Number of Davidson start vectors     ....     2
   Converg. threshold    (grad. norm)   ....   1.000e-04
   Grad. Scal. Fac. for Micro threshold ....   0.100
   Minimum threshold for Micro iter.    ....   1.000e-02
   NR start threshold (gradient norm)   ....   1.000e-04
   Initial trust radius                 ....   0.400
   Minimum AH scaling param. (alpha)    ....   1.000
   Maximum AH scaling param. (alpha)    .... 1000.000
   Quad. conv. algorithm                .... NR
   White noise on init. David. guess    .... on
   Maximum white noise                  ....   0.010
   Pseudo random numbers                .... off
   Inactive MOs                         .... canonical
   Orbital update algorithm             .... Taylor
   Preconditioner                       .... Diag
   Full preconditioner red. dimension   ....   250
 SOSCF                  CNVSOSCF        .... on
   Start iteration      SOSCFMaxIt      ....   150
   Startup grad/error   SOSCFStart      ....  0.003300
   Hessian update       SOSCFHessUp     .... L-BFGS
 Level Shifting         CNVShift        .... on
   Level shift para.    LevelShift      ....    0.2500
   Turn off err/grad.   ShiftErr        ....    0.0010
 Zerner damping         CNVZerner       .... off
 Static damping         CNVDamp         .... on
   Fraction old density DampFac         ....    0.7000
   Max. Damping (<1)    DampMax         ....    0.9800
   Min. Damping (>=0)   DampMin         ....    0.0000
   Turn off err/grad.   DampErr         ....    0.1000

SCF Procedure:
 Maximum # iterations   MaxIter         ....   125
 SCF integral mode      SCFMode         .... Direct
   Integral package                     .... SHARK and LIBINT hybrid scheme
 Reset frequency        DirectResetFreq ....    20
 Integral Threshold     Thresh          ....  3.000e-11 Eh
 Primitive CutOff       TCut            ....  1.000e-12 Eh

Convergence Tolerance:
 Convergence Check Mode ConvCheckMode   .... Total+1el-Energy
 Convergence forced     ConvForced      .... 0
 Energy Change          TolE            ....  1.000e-07 Eh
 1-El. energy change                    ....  1.000e-04 Eh
 Orbital Gradient       TolG            ....  1.000e-04
 Orbital Rotation angle TolX            ....  1.000e-04
 DIIS Error             TolErr          ....  1.000e-07

---------------------
INITIAL GUESS: MOREAD
---------------------
Guess MOs are being read from file: sp_gas.ges
Input Geometry matches current geometry (good)
Atom 0: N(Shells)= 11 and 9 - projection required
Input basis set needs projection
NBasis(read)= 190
NBasis(calc)= 284
Basis set overlap was calculated
Using GuessMode=FMatrix for the initial guess
C*T matrix was formed
Effective Fockian was calculated
Effective Fockian was diagonalized
Initial density was built
                      ------------------
                      INITIAL GUESS DONE (   0.0 sec)
                      ------------------
             **** ENERGY FILE WAS UPDATED (sp_gas.en.tmp) ****
Finished Guess after   0.3 sec
Maximum memory used throughout the entire GUESS-calculation: 25.0 MB

-------------------------------------------------------------------------------------------
                                      ORCA LEAN-SCF
                              memory conserving SCF solver
-------------------------------------------------------------------------------------------

----------------------------------------D-I-I-S--------------------------------------------
Iteration    Energy (Eh)           Delta-E    RMSDP     MaxDP     DIISErr   Damp  Time(sec)
-------------------------------------------------------------------------------------------
               ***  Starting incremental Fock matrix formation  ***
    1    -767.2720543310949779     0.00e+00  1.97e-03  5.84e-02  6.97e-02  0.700  15.4
    2    -767.2788505740199980    -6.80e-03  1.64e-03  5.30e-02  5.04e-02  0.700   8.1
                               ***Turning on AO-DIIS***
    3    -767.2838851235267157    -5.03e-03  1.32e-03  4.47e-02  3.59e-02  0.700   8.1
    4    -767.2875392518722037    -3.65e-03  3.26e-03  1.13e-01  2.53e-02  0.000   7.9
                              *** Initializing SOSCF ***
---------------------------------------S-O-S-C-F--------------------------------------
Iteration    Energy (Eh)           Delta-E    RMSDP     MaxDP     MaxGrad    Time(sec)
--------------------------------------------------------------------------------------
    5    -767.2967643153774588    -9.23e-03  1.47e-04  5.81e-03  1.57e-03     8.1
               *** Restarting incremental Fock matrix formation ***
    6    -767.2967934515254456    -2.91e-05  6.08e-05  2.79e-03  5.72e-04    15.4
    7    -767.2968029475205185    -9.50e-06  4.43e-05  1.64e-03  2.59e-04    12.4
    8    -767.2968049772994164    -2.03e-06  1.57e-05  6.42e-04  1.29e-04    12.2
    9    -767.2968054560615201    -4.79e-07  2.79e-06  8.77e-05  2.87e-05    11.4
   10    -767.2968054718971871    -1.58e-08  1.21e-06  4.31e-05  1.45e-05    10.4
                 **** Energy Check signals convergence ****

               *****************************************************
               *                     SUCCESS                       *
               *           SCF CONVERGED AFTER  10 CYCLES          *
               *****************************************************


------------------
NL GRID GENERATION
------------------

General Integration Accuracy     IntAcc      ... 4.004
Radial Grid Type                 RadialGrid  ... OptM3 with GC (2021)
Angular Grid (max. ang.)         AngularGrid ... 2 (Lebedev-110)
Angular grid pruning method      GridPruning ... 4 (adaptive)
Weight generation scheme         WeightScheme... mBecke (2022)
Basis function cutoff            BFCut       ... 1.0000e-10
Integration weight cutoff        WCut        ... 1.0000e-14
Partially contracted basis set               ... off
Rotationally invariant grid construction     ... off
Angular grids for H and He will be reduced by one unit

Total number of grid points                  ...    21218
Total number of batches                      ...      338
Average number of points per batch           ...       62
Average number of grid points per atom       ...     1632
Final grid set up in    0.2 sec

-------------------------------------------------------------------------------
                    post-SCF DFT-NL dispersion correction                      
-------------------------------------------------------------------------------

SCF Energy:     -767.296805472 
NL    Energy:      0.256838461 
SC+NL Energy:   -767.039967011 
NL done in  :              2.1 sec
-------------------------------------------------------------------------------
Recomputing exchange energy using gridx3       ... done (   27.986 sec)
Old exchange energy                            :    -20.137802742 Eh
New exchange energy                            :    -20.137836184 Eh
Exchange energy change after final integration :     -0.000033442 Eh
Total energy after final integration           :   -767.040000453 Eh
             **** ENERGY FILE WAS UPDATED (sp_gas.en.tmp) ****

----------------
TOTAL SCF ENERGY
----------------

Total Energy       :       -767.04000045305622 Eh          -20872.21954 eV

Components:
Nuclear Repulsion  :        395.83571202847173 Eh           10771.23732 eV
Electronic Energy  :      -1163.13251750036898 Eh          -31650.44488 eV
One Electron Energy:      -1836.16067108656580 Eh          -49964.47200 eV
Two Electron Energy:        673.02815358619682 Eh           18314.02713 eV

Virial components:
Potential Energy   :      -1532.19557688356326 Eh          -41693.16129 eV
Kinetic Energy     :        765.15557643050693 Eh           20820.94175 eV
Virial Ratio       :          2.00246279852176

DFT components:
N(Alpha)           :       33.000010733469 electrons
N(Beta)            :       33.000010733469 electrons
N(Total)           :       66.000021466937 electrons
E(X)               :      -48.333968403427 Eh       
E(C)               :       -2.948677976041 Eh       
NL Energy, E(C,NL) :        0.256838460582 Eh       
E(XC)              :      -51.025807918885 Eh       

---------------
SCF CONVERGENCE
---------------

  Last Energy change         ...    1.5836e-08  Tolerance :   1.0000e-07
  Last MAX-Density change    ...    4.3062e-05  Tolerance :   1.0000e-05
  Last RMS-Density change    ...    1.2108e-06  Tolerance :   1.0000e-06
  Last DIIS Error            ...    1.5722e-03  Tolerance :   1.0000e-07
  Last Orbital Gradient      ...    1.4546e-05  Tolerance :   1.0000e-04
  Last Orbital Rotation      ...    2.9870e-05  Tolerance :   1.0000e-04


----------------
ORBITAL ENERGIES
----------------

  NO   OCC          E(Eh)            E(eV) 
   0   2.0000    -107.142825     -2915.5045 
   1   2.0000     -21.715906      -590.9199 
   2   2.0000     -12.130552      -330.0891 
   3   2.0000     -12.123113      -329.8867 
   4   2.0000     -12.072125      -328.4992 
   5   2.0000     -12.064125      -328.2815 
   6   2.0000     -12.062696      -328.2426 
   7   2.0000     -12.060979      -328.1959 
   8   2.0000     -11.295913      -307.3774 
   9   2.0000      -9.087400      -247.2807 
  10   2.0000      -9.084825      -247.2107 
  11   2.0000      -9.084774      -247.2093 
  12   2.0000      -1.730481       -47.0888 
  13   2.0000      -1.432855       -38.9900 
  14   2.0000      -1.382629       -37.6232 
  15   2.0000      -1.298984       -35.3472 
  16   2.0000      -1.281220       -34.8638 
  17   2.0000      -1.172329       -31.9007 
  18   2.0000      -1.133991       -30.8575 
  19   2.0000      -1.069279       -29.0966 
  20   2.0000      -1.022073       -27.8120 
  21   2.0000      -0.970131       -26.3986 
  22   2.0000      -0.960684       -26.1415 
  23   2.0000      -0.959196       -26.1010 
  24   2.0000      -0.928860       -25.2756 
  25   2.0000      -0.899173       -24.4677 
  26   2.0000      -0.856878       -23.3168 
  27   2.0000      -0.838219       -22.8091 
  28   2.0000      -0.824630       -22.4393 
  29   2.0000      -0.789344       -21.4791 
  30   2.0000      -0.771290       -20.9879 
  31   2.0000      -0.659807       -17.9543 
  32   2.0000      -0.652388       -17.7524 
  33   0.0000      -0.268812        -7.3147 
  34   0.0000      -0.266286        -7.2460 
  35   0.0000      -0.258382        -7.0309 
  36   0.0000      -0.145992        -3.9726 
  37   0.0000      -0.089703        -2.4409 
  38   0.0000      -0.077295        -2.1033 
  39   0.0000      -0.014869        -0.4046 
  40   0.0000      -0.006340        -0.1725 
  41   0.0000       0.005889         0.1602 
  42   0.0000       0.016725         0.4551 
  43   0.0000       0.064196         1.7469 
*Only the first 10 virtual orbitals were printed.

                    ********************************
                    * MULLIKEN POPULATION ANALYSIS *
                    ********************************

-----------------------
MULLIKEN ATOMIC CHARGES
-----------------------
   0 C :   -0.111657
   1 C :   -0.211468
   2 C :    0.264883
   3 C :   -0.260566
   4 C :    0.179333
   5 C :   -0.207003
   6 Cl:   -0.101287
   7 O :   -0.384327
   8 H :    0.126659
   9 H :    0.115142
  10 H :    0.141485
  11 H :    0.133255
  12 H :    0.315553
Sum of atomic charges:    0.0000000

--------------------------------
MULLIKEN REDUCED ORBITAL CHARGES
--------------------------------
  0 C s       :     3.166100  s :     3.166100
      pz      :     0.935861  p :     2.848044
      px      :     0.936495
      py      :     0.975688
      dz2     :     0.004380  d :     0.089846
      dxz     :     0.027526
      dyz     :     0.006736
      dx2y2   :     0.028138
      dxy     :     0.023066
      f0      :     0.001677  f :     0.007667
      f+1     :     0.000626
      f-1     :     0.000703
      f+2     :     0.000392
      f-2     :     0.001128
      f+3     :     0.001730
      f-3     :     0.001412

  1 C s       :     3.191460  s :     3.191460
      pz      :     1.062801  p :     2.937375
      px      :     0.986684
      py      :     0.887890
      dz2     :     0.006449  d :     0.075397
      dxz     :     0.006053
      dyz     :     0.018713
      dx2y2   :     0.025538
      dxy     :     0.018644
      f0      :     0.001650  f :     0.007236
      f+1     :     0.000701
      f-1     :     0.000647
      f+2     :     0.000424
      f-2     :     0.000774
      f+3     :     0.001669
      f-3     :     0.001371

  2 C s       :     3.029201  s :     3.029201
      pz      :     0.893433  p :     2.516165
      px      :     0.799831
      py      :     0.822901
      dz2     :     0.005634  d :     0.174108
      dxz     :     0.040431
      dyz     :     0.033987
      dx2y2   :     0.059751
      dxy     :     0.034306
      f0      :     0.002597  f :     0.015643
      f+1     :     0.001028
      f-1     :     0.001011
      f+2     :     0.001152
      f-2     :     0.002620
      f+3     :     0.004362
      f-3     :     0.002873

  3 C s       :     3.241816  s :     3.241816
      pz      :     1.030547  p :     2.931131
      px      :     0.942666
      py      :     0.957917
      dz2     :     0.004536  d :     0.079907
      dxz     :     0.020319
      dyz     :     0.007154
      dx2y2   :     0.023705
      dxy     :     0.024192
      f0      :     0.001720  f :     0.007713
      f+1     :     0.000751
      f-1     :     0.000769
      f+2     :     0.000372
      f-2     :     0.000965
      f+3     :     0.001654
      f-3     :     0.001484

  4 C s       :     3.084379  s :     3.084379
      pz      :     0.958413  p :     2.555238
      px      :     0.777856
      py      :     0.818968
      dz2     :     0.006833  d :     0.170172
      dxz     :     0.028352
      dyz     :     0.030490
      dx2y2   :     0.052104
      dxy     :     0.052393
      f0      :     0.002070  f :     0.010878
      f+1     :     0.001010
      f-1     :     0.000694
      f+2     :     0.001057
      f-2     :     0.001135
      f+3     :     0.002767
      f-3     :     0.002145

  5 C s       :     3.200161  s :     3.200161
      pz      :     1.020892  p :     2.911752
      px      :     0.962665
      py      :     0.928194
      dz2     :     0.004965  d :     0.087592
      dxz     :     0.012110
      dyz     :     0.014890
      dx2y2   :     0.024616
      dxy     :     0.031010
      f0      :     0.001669  f :     0.007499
      f+1     :     0.000717
      f-1     :     0.000695
      f+2     :     0.001120
      f-2     :     0.000161
      f+3     :     0.001661
      f-3     :     0.001475

  6 Cls       :     5.867095  s :     5.867095
      pz      :     3.934155  p :    11.173394
      px      :     3.331815
      py      :     3.907424
      dz2     :     0.007401  d :     0.055584
      dxz     :     0.014000
      dyz     :     0.001741
      dx2y2   :     0.018318
      dxy     :     0.014124
      f0      :     0.000515  f :     0.005214
      f+1     :     0.000947
      f-1     :     0.000166
      f+2     :     0.000499
      f-2     :     0.000279
      f+3     :     0.001263
      f-3     :     0.001545

  7 O s       :     3.746554  s :     3.746554
      pz      :     1.835380  p :     4.603982
      px      :     1.223346
      py      :     1.545256
      dz2     :     0.004494  d :     0.032085
      dxz     :     0.002056
      dyz     :     0.004633
      dx2y2   :     0.006660
      dxy     :     0.014242
      f0      :     0.000233  f :     0.001705
      f+1     :     0.000452
      f-1     :     0.000228
      f+2     :     0.000021
      f-2     :     0.000110
      f+3     :     0.000155
      f-3     :     0.000506

  8 H s       :     0.851250  s :     0.851250
      pz      :     0.004371  p :     0.022091
      px      :     0.004009
      py      :     0.013711

  9 H s       :     0.862610  s :     0.862610
      pz      :     0.005087  p :     0.022247
      px      :     0.012751
      py      :     0.004409

 10 H s       :     0.836032  s :     0.836032
      pz      :     0.004750  p :     0.022483
      px      :     0.003691
      py      :     0.014042

 11 H s       :     0.844325  s :     0.844325
      pz      :     0.004819  p :     0.022420
      px      :     0.009493
      py      :     0.008109

 12 H s       :     0.638193  s :     0.638193
      pz      :     0.015959  p :     0.046254
      px      :     0.018598
      py      :     0.011697


------------------------
MULLIKEN OVERLAP CHARGES
------------------------
B(  0-C ,  1-C ) :   0.5775 B(  0-C ,  2-C ) :   0.1463 B(  0-C ,  3-C ) :  -0.1828 
B(  0-C ,  4-C ) :   0.1222 B(  0-C ,  5-C ) :   0.7983 B(  0-C ,  8-H ) :   0.8214 
B(  0-C , 11-H ) :  -0.1092 B(  1-C ,  2-C ) :   0.7748 B(  1-C ,  4-C ) :  -0.2056 
B(  1-C ,  5-C ) :   0.1328 B(  1-C ,  7-O ) :  -0.1813 B(  1-C ,  8-H ) :  -0.0660 
B(  1-C ,  9-H ) :   0.8383 B(  2-C ,  3-C ) :   0.8496 B(  2-C ,  4-C ) :   0.0974 
B(  2-C ,  5-C ) :  -0.2250 B(  2-C ,  7-O ) :   0.7634 B(  2-C ,  9-H ) :  -0.1096 
B(  2-C , 10-H ) :  -0.1022 B(  2-C , 12-H ) :  -0.0728 B(  3-C ,  4-C ) :   0.7491 
B(  3-C ,  5-C ) :   0.0656 B(  3-C ,  6-Cl) :  -0.0892 B(  3-C ,  7-O ) :  -0.0920 
B(  3-C , 10-H ) :   0.8595 B(  4-C ,  5-C ) :   0.7369 B(  4-C ,  6-Cl) :   0.5808 
B(  4-C , 10-H ) :  -0.1130 B(  4-C , 11-H ) :  -0.1218 B(  5-C ,  6-Cl) :  -0.0815 
B(  5-C ,  8-H ) :  -0.0744 B(  5-C , 11-H ) :   0.8825 B(  7-O , 12-H ) :   0.6109 



                     *******************************
                     * LOEWDIN POPULATION ANALYSIS *
                     *******************************

----------------------
LOEWDIN ATOMIC CHARGES
----------------------
   0 C :   -0.127665
   1 C :   -0.147129
   2 C :   -0.257367
   3 C :   -0.122637
   4 C :   -0.398090
   5 C :   -0.160645
   6 Cl:    0.363930
   7 O :    0.074196
   8 H :    0.146420
   9 H :    0.141449
  10 H :    0.153410
  11 H :    0.146196
  12 H :    0.187931

-------------------------------
LOEWDIN REDUCED ORBITAL CHARGES
-------------------------------
  0 C s       :     2.762295  s :     2.762295
      pz      :     0.864399  p :     2.923308
      px      :     1.065981
      py      :     0.992928
      dz2     :     0.024921  d :     0.398275
      dxz     :     0.091741
      dyz     :     0.016433
      dx2y2   :     0.152910
      dxy     :     0.112270
      f0      :     0.003169  f :     0.043787
      f+1     :     0.004270
      f-1     :     0.003181
      f+2     :     0.002634
      f-2     :     0.007535
      f+3     :     0.012560
      f-3     :     0.010439

  1 C s       :     2.759034  s :     2.759034
      pz      :     0.948438  p :     2.980428
      px      :     0.997129
      py      :     1.034862
      dz2     :     0.026402  d :     0.365293
      dxz     :     0.017846
      dyz     :     0.065931
      dx2y2   :     0.145306
      dxy     :     0.109808
      f0      :     0.003151  f :     0.042374
      f+1     :     0.003408
      f-1     :     0.004433
      f+2     :     0.003419
      f-2     :     0.005493
      f+3     :     0.012442
      f-3     :     0.010028

  2 C s       :     2.719462  s :     2.719462
      pz      :     0.836465  p :     2.758655
      px      :     0.943728
      py      :     0.978462
      dz2     :     0.044200  d :     0.683383
      dxz     :     0.114438
      dyz     :     0.112866
      dx2y2   :     0.189279
      dxy     :     0.222600
      f0      :     0.006948  f :     0.095866
      f+1     :     0.006531
      f-1     :     0.006892
      f+2     :     0.007929
      f-2     :     0.017487
      f+3     :     0.029105
      f-3     :     0.020975

  3 C s       :     2.760916  s :     2.760916
      pz      :     0.928186  p :     2.965364
      px      :     1.040614
      py      :     0.996564
      dz2     :     0.026596  d :     0.353956
      dxz     :     0.066984
      dyz     :     0.016967
      dx2y2   :     0.135684
      dxy     :     0.107725
      f0      :     0.003383  f :     0.042401
      f+1     :     0.004532
      f-1     :     0.003419
      f+2     :     0.002366
      f-2     :     0.007013
      f+3     :     0.011367
      f-3     :     0.010321

  4 C s       :     2.779064  s :     2.779064
      pz      :     0.897577  p :     2.942954
      px      :     0.950007
      py      :     1.095370
      dz2     :     0.040579  d :     0.612982
      dxz     :     0.086708
      dyz     :     0.095771
      dx2y2   :     0.202099
      dxy     :     0.187825
      f0      :     0.004396  f :     0.063090
      f+1     :     0.004956
      f-1     :     0.004598
      f+2     :     0.007047
      f-2     :     0.007843
      f+3     :     0.019161
      f-3     :     0.015089

  5 C s       :     2.763131  s :     2.763131
      pz      :     0.925778  p :     2.980129
      px      :     1.032578
      py      :     1.021773
      dz2     :     0.026081  d :     0.374239
      dxz     :     0.039248
      dyz     :     0.048207
      dx2y2   :     0.106169
      dxy     :     0.154533
      f0      :     0.003293  f :     0.043146
      f+1     :     0.003761
      f-1     :     0.004066
      f+2     :     0.008005
      f-2     :     0.001262
      f+3     :     0.012215
      f-3     :     0.010545

  6 Cls       :     5.554104  s :     5.554104
      pz      :     3.861324  p :    10.980692
      px      :     3.312769
      py      :     3.806599
      dz2     :     0.011571  d :     0.090742
      dxz     :     0.022683
      dyz     :     0.002701
      dx2y2   :     0.029357
      dxy     :     0.024430
      f0      :     0.001090  f :     0.010532
      f+1     :     0.001661
      f-1     :     0.000329
      f+2     :     0.001103
      f-2     :     0.000603
      f+3     :     0.002737
      f-3     :     0.003009

  7 O s       :     3.328282  s :     3.328282
      pz      :     1.721321  p :     4.522832
      px      :     1.244448
      py      :     1.557063
      dz2     :     0.008353  d :     0.069987
      dxz     :     0.006718
      dyz     :     0.006971
      dx2y2   :     0.020704
      dxy     :     0.027241
      f0      :     0.000383  f :     0.004704
      f+1     :     0.000803
      f-1     :     0.000331
      f+2     :     0.000009
      f-2     :     0.000547
      f+3     :     0.000801
      f-3     :     0.001830

  8 H s       :     0.795707  s :     0.795707
      pz      :     0.012577  p :     0.057873
      px      :     0.011676
      py      :     0.033619

  9 H s       :     0.799485  s :     0.799485
      pz      :     0.014933  p :     0.059066
      px      :     0.031281
      py      :     0.012853

 10 H s       :     0.786131  s :     0.786131
      pz      :     0.014147  p :     0.060459
      px      :     0.010921
      py      :     0.035391

 11 H s       :     0.793900  s :     0.793900
      pz      :     0.014247  p :     0.059904
      px      :     0.024374
      py      :     0.021283

 12 H s       :     0.661982  s :     0.661982
      pz      :     0.042287  p :     0.150087
      px      :     0.063148
      py      :     0.044652


---------------------------------
LOEWDIN BOND ORDERS (THRESH 0.050000)
---------------------------------
B(  0-C ,  1-C ) :   1.5878 B(  0-C ,  2-C ) :   0.2464 B(  0-C ,  3-C ) :   0.1062 
B(  0-C ,  4-C ) :   0.2541 B(  0-C ,  5-C ) :   1.5779 B(  0-C ,  8-H ) :   0.8260 
B(  0-C ,  9-H ) :   0.0947 B(  0-C , 11-H ) :   0.0950 B(  1-C ,  2-C ) :   1.4966 
B(  1-C ,  3-C ) :   0.2226 B(  1-C ,  4-C ) :   0.1042 B(  1-C ,  5-C ) :   0.2376 
B(  1-C ,  7-O ) :   0.1462 B(  1-C ,  8-H ) :   0.0974 B(  1-C ,  9-H ) :   0.8258 
B(  2-C ,  3-C ) :   1.4765 B(  2-C ,  4-C ) :   0.2507 B(  2-C ,  5-C ) :   0.1005 
B(  2-C ,  7-O ) :   1.6373 B(  2-C ,  9-H ) :   0.0968 B(  2-C , 10-H ) :   0.0958 
B(  2-C , 12-H ) :   0.1040 B(  3-C ,  4-C ) :   1.5615 B(  3-C ,  5-C ) :   0.2289 
B(  3-C ,  6-Cl) :   0.1692 B(  3-C ,  7-O ) :   0.1531 B(  3-C , 10-H ) :   0.8191 
B(  4-C ,  5-C ) :   1.5450 B(  4-C ,  6-Cl) :   1.5833 B(  4-C , 10-H ) :   0.0961 
B(  4-C , 11-H ) :   0.0963 B(  5-C ,  6-Cl) :   0.1637 B(  5-C ,  8-H ) :   0.0964 
B(  5-C , 11-H ) :   0.8274 B(  7-O , 12-H ) :   0.9932 

------------------------------------------
LOEWDIN REDUCED ORBITAL POPULATIONS PER MO
-------------------------------------------
THRESHOLD FOR PRINTING IS 0.1%%
                      0         1         2         3         4         5   
                 -107.14282 -21.71591 -12.13055 -12.12311 -12.07212 -12.06413
                   2.00000   2.00000   2.00000   2.00000   2.00000   2.00000
                  --------  --------  --------  --------  --------  --------
 0 C  s               0.0       0.0       0.0       0.0      96.5       1.5
 0 C  dxy             0.0       0.0       0.0       0.0       0.0       0.2
 1 C  s               0.0       0.0       0.0       0.0       1.6      95.5
 1 C  dx2y2           0.0       0.0       0.2       0.0       0.0       0.0
 1 C  dxy             0.0       0.0       0.0       0.0       0.2       0.0
 2 C  s               0.0       0.0      98.8       0.1       0.0       0.0
 2 C  dx2y2           0.0       0.0       0.0       0.0       0.0       0.2
 3 C  s               0.0       0.0       0.0       0.1       0.0       1.3
 3 C  dx2y2           0.0       0.0       0.1       0.0       0.0       0.0
 3 C  dxy             0.0       0.0       0.1       0.2       0.0       0.0
 4 C  s               0.0       0.0       0.1      98.8       0.0       0.0
 5 C  s               0.0       0.0       0.0       0.0       0.8       0.6
 5 C  dx2y2           0.0       0.0       0.0       0.2       0.1       0.0
 6 Cl s             100.0       0.0       0.0       0.0       0.0       0.0
 7 O  s               0.0      99.8       0.0       0.0       0.0       0.0

                      6         7         8         9        10        11   
                 -12.06270 -12.06098 -11.29591  -9.08740  -9.08483  -9.08477
                   2.00000   2.00000   2.00000   2.00000   2.00000   2.00000
                  --------  --------  --------  --------  --------  --------
 0 C  s               0.0       1.0       0.0       0.0       0.0       0.0
 0 C  dx2y2           0.0       0.1       0.0       0.0       0.0       0.0
 1 C  s               1.1       0.7       0.0       0.0       0.0       0.0
 3 C  s              96.4       1.2       0.0       0.0       0.0       0.0
 4 C  dx2y2           0.0       0.2       0.0       0.0       0.0       0.0
 4 C  dxy             0.2       0.0       0.0       0.0       0.0       0.0
 5 C  s               1.4      96.1       0.0       0.0       0.0       0.0
 6 Cl s               0.0       0.0      99.8       0.0       0.0       0.0
 6 Cl pz              0.0       0.0       0.0       0.0       0.0     100.0
 6 Cl px              0.0       0.0       0.0      90.5       9.4       0.0
 6 Cl py              0.0       0.0       0.0       9.4      90.6       0.0

                     12        13        14        15        16        17   
                  -1.73048  -1.43285  -1.38263  -1.29898  -1.28122  -1.17233
                   2.00000   2.00000   2.00000   2.00000   2.00000   2.00000
                  --------  --------  --------  --------  --------  --------
 0 C  s               0.0       3.1       8.3      12.6       2.3       0.1
 0 C  px              0.0       0.4       0.0       1.8       7.5       6.7
 0 C  py              0.0       1.2       2.2       0.3       0.5       0.5
 0 C  dz2             0.0       0.2       0.4       0.2       0.0       0.0
 0 C  dx2y2           0.0       0.0       0.0       0.6       0.1       0.2
 0 C  dxy             0.0       0.0       0.1       0.1       1.8       0.4
 0 C  f-3             0.0       0.0       0.0       0.1       0.0       0.0
 1 C  s               0.4       2.3      10.3       0.3      14.9       3.3
 1 C  px              0.0       1.1       2.2       0.8       0.3       0.2
 1 C  py              1.3       0.1       0.2       6.5       0.1       0.4
 1 C  dz2             0.1       0.1       0.5       0.0       0.2       0.0
 1 C  dx2y2           0.3       0.0       0.0       0.6       0.3       0.1
 1 C  dxy             0.1       0.0       0.0       1.5       0.1       0.0
 2 C  s               7.2       2.8       7.8       9.1       2.8       2.3
 2 C  px              5.9       1.9       1.3       3.2       2.9       1.5
 2 C  py              5.0       0.4       2.6       1.1       5.9       8.1
 2 C  dz2             1.2       0.1       0.3       0.0       0.0       0.1
 2 C  dx2y2           0.0       0.0       0.1       0.4       1.9       0.3
 2 C  dxy             3.5       0.1       0.2       0.8       0.2       0.2
 2 C  f+1             0.1       0.0       0.0       0.0       0.0       0.0
 2 C  f-1             0.1       0.0       0.0       0.0       0.0       0.1
 2 C  f+3             0.2       0.0       0.0       0.1       0.0       0.1
 2 C  f-3             0.3       0.0       0.0       0.0       0.0       0.0
 3 C  s               0.4       7.1       3.8      11.2       4.7       2.1
 3 C  px              1.4       1.3       2.4       1.9       3.0       5.4
 3 C  py              0.0       2.4       1.2       0.3       0.7       0.8
 3 C  dz2             0.1       0.4       0.2       0.2       0.1       0.0
 3 C  dx2y2           0.3       0.1       0.0       0.7       0.2       0.3
 3 C  dxy             0.0       0.2       0.2       0.1       1.4       0.0
 3 C  f+3             0.0       0.0       0.0       0.0       0.1       0.0
 3 C  f-3             0.0       0.1       0.0       0.1       0.0       0.1
 4 C  s               0.0      20.4       0.1       0.0       9.8       1.1
 4 C  px              0.0       1.9      13.2       0.8       4.7       1.2
 4 C  py              0.0       0.2       1.3       9.3       0.5       6.9
 4 C  dz2             0.0       1.5       0.0       0.0       0.0       0.0
 4 C  dx2y2           0.0       0.6       0.8       0.7       1.4       0.1
 4 C  dxy             0.0       0.3       0.5       1.4       0.7       0.5
 4 C  f+1             0.0       0.0       0.1       0.0       0.0       0.0
 4 C  f+3             0.0       0.1       0.0       0.0       0.0       0.0
 4 C  f-3             0.0       0.2       0.0       0.0       0.0       0.0
 5 C  s               0.0       6.8       3.4      11.8       4.9       5.1
 5 C  px              0.0       0.0       3.6       1.9       0.9       0.1
 5 C  py              0.0       3.5       0.0       0.6       2.9       1.0
 5 C  dz2             0.0       0.4       0.2       0.2       0.1       0.0
 5 C  dx2y2           0.0       0.1       0.1       0.5       1.4       0.1
 5 C  dxy             0.0       0.2       0.1       0.4       0.0       0.2
 5 C  f-3             0.0       0.0       0.0       0.0       0.1       0.0
 6 Cl s               0.0      33.3      25.2       0.0      10.2       0.5
 6 Cl px              0.0       1.0       0.1       0.0       1.8       0.5
 6 Cl py              0.0       0.1       0.0       0.0       0.2       0.0
 6 Cl dx2y2           0.0       0.2       0.0       0.0       0.1       0.1
 7 O  s              56.5       0.2       0.8       0.9       0.4       0.2
 7 O  px              0.0       0.4       1.4       6.5       0.6      33.2
 7 O  py              1.4       0.1       0.6       1.0       1.1       1.7
 7 O  dxy             0.0       0.0       0.1       0.2       0.0       0.7
 8 H  s               0.0       0.4       1.0       2.1       0.4       0.0
 8 H  py              0.0       0.0       0.1       0.2       0.1       0.0
 9 H  s               0.1       0.3       1.2       0.1       2.7       1.0
 9 H  px              0.0       0.0       0.1       0.0       0.3       0.1
10 H  s               0.1       0.9       0.3       1.8       0.7       0.4
10 H  py              0.0       0.1       0.0       0.2       0.1       0.1
11 H  s               0.0       0.9       0.3       1.9       0.7       1.8
11 H  px              0.0       0.0       0.0       0.2       0.0       0.1
12 H  s              10.8       0.1       0.5       1.8       0.2       9.1
12 H  px              2.5       0.0       0.1       0.1       0.0       0.2
12 H  py              0.5       0.0       0.0       0.1       0.0       0.5

                     18        19        20        21        22        23   
                  -1.13399  -1.06928  -1.02207  -0.97013  -0.96068  -0.95920
                   2.00000   2.00000   2.00000   2.00000   2.00000   2.00000
                  --------  --------  --------  --------  --------  --------
 0 C  s               9.3       0.3       0.9       0.3       0.0       0.3
 0 C  px              0.0      10.8       3.1       2.1       0.0       9.9
 0 C  py              1.9       0.0       3.3       3.6       0.0       0.5
 0 C  dx2y2           0.0       0.0       0.0       0.6       0.0       0.2
 0 C  dxy             0.0       0.1       0.1       0.2       0.0       0.3
 1 C  s               1.7       1.7       0.7       1.2       0.0       0.7
 1 C  pz              0.0       0.0       0.0       0.0       0.6       0.0
 1 C  px              3.2       0.8       0.9       7.1       0.0       4.9
 1 C  py             10.8       9.6       0.7       2.3       0.0       9.1
 1 C  dyz             0.0       0.0       0.0       0.0       0.4       0.0
 1 C  dx2y2           0.2       0.0       0.2       0.0       0.0       0.2
 1 C  dxy             0.3       0.7       0.7       0.2       0.0       0.4
 2 C  s               0.9       2.1       0.1       0.1       0.0       0.1
 2 C  pz              0.0       0.0       0.0       0.0      11.7       0.0
 2 C  px              7.0       6.8       8.0       0.9       0.0       2.2
 2 C  py              8.8       2.2       0.4       1.2       0.0       6.3
 2 C  dxz             0.0       0.0       0.0       0.0       2.1       0.0
 2 C  dyz             0.0       0.0       0.0       0.0       1.8       0.0
 2 C  dx2y2           0.1       0.8       2.1       0.0       0.0       1.4
 2 C  dxy             0.1       1.0       0.1       2.9       0.0       0.2
 2 C  f0              0.0       0.0       0.0       0.0       0.3       0.0
 2 C  f-2             0.0       0.0       0.0       0.0       0.5       0.0
 2 C  f+3             0.0       0.1       0.1       0.1       0.0       0.4
 2 C  f-3             0.0       0.1       0.1       0.0       0.0       0.2
 3 C  s               5.4       0.3       0.3       2.0       0.0       0.1
 3 C  pz              0.0       0.0       0.0       0.0       0.6       0.0
 3 C  px              0.3      10.9       7.6       2.2       0.0       7.1
 3 C  py              2.1       0.0       0.3      12.0       0.0       0.1
 3 C  dxz             0.0       0.0       0.0       0.0       0.4       0.0
 3 C  dxy             0.0       1.8       0.1       0.3       0.0       0.1
 4 C  s               2.7       4.6       0.0       0.3       0.0       0.1
 4 C  px              0.8       0.3       0.1       5.7       0.0       0.2
 4 C  py              8.2       1.6       7.6       1.0       0.0       7.7
 4 C  dz2             0.0       0.1       0.0       0.1       0.0       0.0
 4 C  dx2y2           0.3       0.2       0.1       0.4       0.0       0.3
 4 C  dxy             0.0       0.0       0.0       0.9       0.0       0.0
 5 C  s               1.0       2.0       0.0       1.7       0.0       0.7
 5 C  pz              0.0       0.0       0.0       0.0       0.1       0.0
 5 C  px              7.7       0.5       2.2      14.0       0.0       0.6
 5 C  py              6.7       3.3       4.6       2.8       0.0      11.0
 5 C  dx2y2           0.8       0.1       0.0       0.0       0.0       0.1
 5 C  dxy             0.0       0.1       0.1       0.0       0.0       0.1
 6 Cl s               1.3       2.6       0.1       0.5       0.0       0.0
 6 Cl px              1.1       5.8       0.6       2.2       0.0       0.3
 6 Cl py              0.6       0.3       0.2       1.3       0.0       0.7
 6 Cl dz2             0.1       0.1       0.0       0.0       0.0       0.0
 6 Cl dx2y2           0.0       0.4       0.1       0.0       0.0       0.1
 6 Cl dxy             0.3       0.1       0.1       0.1       0.0       0.1
 7 O  s               0.7       0.5       4.1       0.1       0.0       1.9
 7 O  pz              0.0       0.0       0.0       0.0      79.1       0.0
 7 O  px              0.4      15.8       0.5       1.3       0.0       1.6
 7 O  py              4.7       0.4      43.7       0.1       0.0      20.4
 7 O  dz2             0.0       0.0       0.1       0.0       0.0       0.1
 7 O  dx2y2           0.1       0.1       0.0       0.1       0.0       0.3
 7 O  dxy             0.0       0.1       0.0       0.0       0.0       0.0
 8 H  s               4.3       0.4       1.7       1.3       0.0       0.1
 8 H  px              0.0       0.1       0.1       0.0       0.0       0.1
 8 H  py              0.4       0.1       0.1       0.1       0.0       0.0
 9 H  s               0.9       2.3       0.0       6.7       0.0       1.8
 9 H  px              0.0       0.3       0.0       0.3       0.0       0.0
 9 H  py              0.2       0.0       0.0       0.0       0.0       0.2
10 H  s               2.8       0.0       0.7       7.8       0.0       0.4
10 H  px              0.0       0.1       0.1       0.1       0.0       0.1
10 H  py              0.3       0.0       0.1       0.3       0.0       0.0
11 H  s               0.4       1.4       0.0       9.8       0.0       2.7
11 H  px              0.0       0.1       0.0       0.2       0.0       0.2
11 H  py              0.2       0.0       0.0       0.3       0.0       0.0
12 H  s               0.2       5.3       1.6       0.8       0.0       2.4
12 H  pz              0.0       0.0       0.0       0.0       1.9       0.0
12 H  px              0.0       0.0       0.1       0.0       0.0       0.1
12 H  py              0.1       0.1       0.6       0.0       0.0       0.2

                     24        25        26        27        28        29   
                  -0.92886  -0.89917  -0.85688  -0.83822  -0.82463  -0.78934
                   2.00000   2.00000   2.00000   2.00000   2.00000   2.00000
                  --------  --------  --------  --------  --------  --------
 0 C  s               0.7       0.5       0.1       0.3       0.0       0.0
 0 C  pz              0.0       0.0       0.0       0.0       3.0       0.0
 0 C  px              0.1       0.8       7.7       2.1       0.0       0.2
 0 C  py              3.2      22.5       1.8       7.6       0.0       0.4
 0 C  dz2             0.0       0.1       0.0       0.0       0.0       0.0
 0 C  dyz             0.0       0.0       0.0       0.0       0.1       0.0
 0 C  dx2y2           1.3       0.5       0.1       3.7       0.0       0.1
 0 C  dxy             0.0       0.4       1.5       0.3       0.0       0.1
 0 C  f+3             0.1       0.0       0.2       0.0       0.0       0.0
 0 C  f-3             0.0       0.0       0.1       0.0       0.0       0.0
 1 C  s               0.8       0.3       0.2       0.2       0.0       0.0
 1 C  pz              0.0       0.0       0.0       0.0       2.3       0.0
 1 C  px              5.8       6.6      11.5       4.3       0.0       0.0
 1 C  py              2.9       0.3       0.7       6.5       0.0       0.0
 1 C  dx2y2           1.2       0.4       0.8       2.8       0.0       0.1
 1 C  dxy             0.0       0.4       0.3       0.6       0.0       0.0
 1 C  f+3             0.0       0.2       0.0       0.0       0.0       0.0
 1 C  f-3             0.0       0.1       0.0       0.0       0.0       0.0
 2 C  s               1.2       0.2       0.1       0.0       0.0       0.1
 2 C  pz              0.0       0.0       0.0       0.0       1.7       0.0
 2 C  px              0.9       1.0       0.2       3.4       0.0       0.0
 2 C  py              1.2       0.2       0.1       5.4       0.0       0.0
 2 C  dz2             0.1       0.0       0.0       0.0       0.0       0.0
 2 C  dxz             0.0       0.0       0.0       0.0       0.4       0.0
 2 C  dyz             0.0       0.0       0.0       0.0       0.1       0.0
 2 C  dx2y2           0.1       1.1       0.0       0.9       0.0       0.0
 2 C  dxy             0.1       0.0       1.7       0.0       0.0       0.0
 2 C  f+3             0.0       0.3       0.0       0.0       0.0       0.0
 2 C  f-3             0.0       0.2       0.0       0.0       0.0       0.0
 3 C  s               0.8       0.4       0.0       0.3       0.0       0.2
 3 C  pz              0.0       0.0       0.0       0.0       6.9       0.0
 3 C  px              1.8       0.6       2.0       3.0       0.0       0.9
 3 C  py              0.9      18.1       2.8       7.6       0.0       0.4
 3 C  dxz             0.0       0.0       0.0       0.0       0.3       0.0
 3 C  dyz             0.0       0.0       0.0       0.0       0.4       0.0
 3 C  dx2y2           1.6       0.5       0.2       2.3       0.0       0.0
 3 C  dxy             0.2       0.3       0.0       0.3       0.0       0.1
 3 C  f+3             0.2       0.0       0.0       0.0       0.0       0.0
 4 C  s               0.4       0.3       0.1       0.1       0.0       0.0
 4 C  pz              0.0       0.0       0.0       0.0      21.0       0.0
 4 C  px             13.0       3.7       1.2       0.4       0.0       0.1
 4 C  py              1.5       0.2       3.1       3.5       0.0       1.9
 4 C  dxz             0.0       0.0       0.0       0.0       0.7       0.0
 4 C  dx2y2           1.7       0.3       0.3       1.2       0.0       1.4
 4 C  dxy             0.3       0.5       1.4       0.5       0.0       2.1
 4 C  f0              0.0       0.0       0.0       0.0       0.2       0.0
 4 C  f+3             0.0       0.1       0.2       0.0       0.0       0.2
 4 C  f-3             0.0       0.1       0.1       0.1       0.0       0.1
 5 C  s               0.7       0.1       0.6       0.1       0.0       0.1
 5 C  pz              0.0       0.0       0.0       0.0       6.8       0.0
 5 C  px              0.1       1.7      16.0       1.6       0.0       0.7
 5 C  py              1.3       0.2       7.6       4.4       0.0       1.2
 5 C  dz2             0.1       0.0       0.1       0.0       0.0       0.1
 5 C  dyz             0.0       0.0       0.0       0.0       0.6       0.0
 5 C  dx2y2           0.1       1.2       0.1       0.3       0.0       0.1
 5 C  dxy             1.2       0.1       4.7       0.4       0.0       0.0
 5 C  f+3             0.0       0.3       0.0       0.0       0.0       0.0
 5 C  f-3             0.0       0.1       0.0       0.0       0.0       0.0
 6 Cl s               3.6       0.3       0.1       0.2       0.0       0.0
 6 Cl pz              0.0       0.0       0.0       0.0      53.4       0.0
 6 Cl px             31.8       3.9       1.3       7.5       0.0       7.7
 6 Cl py              3.9       0.2       1.9       0.4       0.0      80.5
 6 Cl dz2             0.1       0.0       0.0       0.0       0.0       0.0
 6 Cl dxz             0.0       0.0       0.0       0.0       0.3       0.0
 6 Cl dx2y2           0.4       0.0       0.0       0.1       0.0       0.0
 6 Cl dxy             0.2       0.0       0.1       0.0       0.0       0.1
 7 O  s               0.0       0.0       0.0       0.1       0.0       0.0
 7 O  pz              0.0       0.0       0.0       0.0       1.0       0.0
 7 O  px              0.3       0.0       0.2       0.1       0.0       0.0
 7 O  py              0.9       0.2       0.6       1.0       0.0       0.0
 7 O  dx2y2           0.0       0.0       0.0       0.2       0.0       0.0
 8 H  s               3.2      14.3       0.9       9.2       0.0       0.4
 8 H  px              0.0       0.0       0.1       0.0       0.0       0.0
 8 H  py              0.1       0.3       0.0       0.2       0.0       0.0
 9 H  s               6.7       2.6       6.1       7.3       0.0       0.0
 9 H  px              0.2       0.0       0.0       0.1       0.0       0.0
 9 H  py              0.0       0.0       0.1       0.0       0.0       0.0
10 H  s               2.2      11.6       1.2       8.2       0.0       0.2
10 H  py              0.1       0.3       0.0       0.2       0.0       0.0
11 H  s               0.0       0.3      18.9       0.4       0.0       0.2
11 H  px              0.0       0.0       0.2       0.1       0.0       0.0
11 H  py              0.0       0.0       0.2       0.0       0.0       0.0
12 H  s               0.0       0.0       0.2       0.3       0.0       0.0

                     30        31        32        33        34        35   
                  -0.77129  -0.65981  -0.65239  -0.26881  -0.26629  -0.25838
                   2.00000   2.00000   2.00000   0.00000   0.00000   0.00000
                  --------  --------  --------  --------  --------  --------
 0 C  s               0.0       0.0       0.0       0.4       0.0       0.0
 0 C  pz             14.0      17.0       9.2       0.0       0.9      23.5
 0 C  px              0.0       0.0       0.0       0.4       0.0       0.0
 0 C  dz2             0.0       0.0       0.0       0.1       0.0       0.0
 0 C  dxz             0.0       1.4       3.1       0.0       4.3       0.4
 0 C  dyz             0.4       0.2       0.1       0.0       0.4       0.9
 0 C  dx2y2           0.0       0.0       0.0       0.1       0.0       0.0
 0 C  dxy             0.0       0.0       0.0       0.3       0.0       0.0
 0 C  f0              0.1       0.0       0.0       0.0       0.0       0.2
 0 C  f+2             0.0       0.0       0.1       0.0       0.0       0.1
 0 C  f-2             0.0       0.2       0.2       0.0       0.4       0.0
 1 C  pz             14.3      24.6       5.7       0.0      18.6       2.4
 1 C  dxz             0.4       0.1       0.2       0.0       0.7       1.1
 1 C  dyz             0.0       0.5       2.4       0.0       1.1       4.4
 1 C  f0              0.1       0.0       0.0       0.0       0.2       0.0
 1 C  f+2             0.0       0.0       0.1       0.0       0.1       0.1
 1 C  f-2             0.0       0.1       0.2       0.0       0.0       0.4
 2 C  s               0.0       0.0       0.0       0.9       0.0       0.0
 2 C  pz              8.5       0.2      19.8       0.0      14.4      12.4
 2 C  py              0.0       0.0       0.0       0.7       0.0       0.0
 2 C  dz2             0.0       0.0       0.0       0.3       0.0       0.0
 2 C  dxz             0.7       1.7       0.8       0.0       0.7       2.0
 2 C  dyz             0.9       2.5       0.3       0.0       1.7       1.3
 2 C  dx2y2           0.0       0.0       0.0       0.2       0.0       0.0
 2 C  dxy             0.0       0.0       0.0       0.4       0.0       0.0
 2 C  f0              0.0       0.0       0.0       0.0       0.2       0.2
 2 C  f+2             0.0       0.4       0.0       0.0       0.2       0.2
 2 C  f-2             0.1       0.0       0.2       0.0       0.0       0.0
 2 C  f+3             0.0       0.0       0.0       0.1       0.0       0.0
 3 C  s               0.0       0.0       0.0       0.3       0.0       0.0
 3 C  pz              8.8      18.5      11.6       0.0       1.6      21.8
 3 C  px              0.0       0.0       0.0       0.1       0.0       0.0
 3 C  py              0.0       0.0       0.0       0.5       0.0       0.0
 3 C  dz2             0.0       0.0       0.0       0.1       0.0       0.0
 3 C  dxz             0.1       0.9       1.7       0.0       4.9       0.6
 3 C  dyz             0.2       0.2       0.0       0.0       0.5       1.1
 3 C  dx2y2           0.0       0.0       0.0       3.9       0.0       0.0
 3 C  dxy             0.0       0.0       0.0       0.6       0.0       0.0
 3 C  f0              0.0       0.0       0.0       0.0       0.0       0.2
 3 C  f-2             0.0       0.1       0.2       0.0       0.5       0.0
 3 C  f-3             0.0       0.0       0.0       0.3       0.0       0.0
 4 C  s               0.0       0.0       0.0       8.5       0.0       0.0
 4 C  pz              2.9      18.0       2.9       0.0      22.2       2.6
 4 C  px              0.0       0.0       0.0      19.2       0.0       0.0
 4 C  py              0.0       0.0       0.0       2.5       0.0       0.0
 4 C  dz2             0.0       0.0       0.0       2.2       0.0       0.0
 4 C  dxz             2.6       0.9       0.1       0.0       0.4       1.0
 4 C  dyz             0.2       0.3       4.2       0.0       0.8       4.0
 4 C  dx2y2           0.0       0.0       0.0       1.5       0.0       0.0
 4 C  dxy             0.0       0.0       0.0       0.6       0.0       0.0
 4 C  f0              0.0       0.0       0.0       0.0       0.2       0.0
 4 C  f+1             0.0       0.0       0.0       0.1       0.0       0.0
 4 C  f+2             0.1       0.0       0.2       0.0       0.1       0.1
 4 C  f-2             0.1       0.1       0.2       0.0       0.0       0.3
 4 C  f+3             0.0       0.0       0.0       0.2       0.0       0.0
 4 C  f-3             0.0       0.0       0.0       0.4       0.0       0.0
 5 C  s               0.0       0.0       0.0       0.2       0.0       0.0
 5 C  pz              8.8       0.3      30.3       0.0      12.2       9.2
 5 C  py              0.0       0.0       0.0       0.6       0.0       0.0
 5 C  dxz             0.5       1.4       0.1       0.0       0.2       3.0
 5 C  dyz             0.0       1.8       0.0       0.0       3.0       0.7
 5 C  dxy             0.0       0.0       0.0       3.1       0.0       0.0
 5 C  f0              0.1       0.0       0.0       0.0       0.1       0.1
 5 C  f+2             0.0       0.4       0.0       0.0       0.3       0.3
 5 C  f+3             0.0       0.0       0.0       0.4       0.0       0.0
 6 Cl s               0.0       0.0       0.0       3.6       0.0       0.0
 6 Cl pz             32.4       6.3       1.0       0.0       2.2       0.3
 6 Cl px              0.0       0.0       0.0      26.3       0.0       0.0
 6 Cl py              0.0       0.0       0.0       2.7       0.0       0.0
 6 Cl dz2             0.0       0.0       0.0       3.1       0.0       0.0
 6 Cl dxz             0.1       0.7       0.1       0.0       1.8       0.1
 6 Cl dyz             0.0       0.1       0.0       0.0       0.1       0.1
 6 Cl dx2y2           0.0       0.0       0.0       6.8       0.0       0.0
[...]
 7 O  dyz            10.6       0.0       0.0      55.7       0.0      31.8
 7 O  dx2y2           0.0       0.1       4.2       0.0      15.2       0.0
 7 O  dxy             0.0      11.6       0.1       0.0       6.1       0.0
 7 O  f0             23.5       0.0       0.0       2.4       0.0       4.6
 7 O  f+1             0.0      41.9       3.9       0.0       0.5       0.0
 7 O  f-1             0.0       4.3       2.4       0.0       0.0       0.0
 7 O  f-2            38.2       0.0       0.0       0.8       0.0      11.6
 7 O  f+3             0.0       0.4      41.5       0.0       0.1       0.0
 7 O  f-3             0.0       0.2       0.0       0.0      26.4       0.0
 9 H  s               0.0       0.2       0.1       0.0       0.0       0.0
 9 H  py              0.0       0.0       0.1       0.0       0.0       0.0
10 H  s               0.0       0.1       0.1       0.0       0.1       0.0
10 H  px              0.0       0.1       0.0       0.0       0.1       0.0
12 H  s               0.0       2.6       1.1       0.0       1.9       0.0
12 H  pz              0.0       0.0       0.0       0.5       0.0       0.0
12 H  px              0.0       0.7       0.0       0.0       1.3       0.0
12 H  py              0.0       0.2       0.9       0.0       0.1       0.0

                    270       271       272       273       274       275   
                   6.33885   6.51845   6.84648   9.61352   9.68771  10.22493
                   0.00000   0.00000   0.00000   0.00000   0.00000   0.00000
                  --------  --------  --------  --------  --------  --------
 1 C  s               0.1       0.4       0.4       0.0       0.0       0.0
 1 C  px              0.3       0.0       0.0       0.0       0.0       0.0
 1 C  py              0.0       0.0       0.3       0.0       0.0       0.0
 1 C  dx2y2           0.0       0.0       0.1       0.0       0.0       0.0
 1 C  dxy             0.2       0.0       0.2       0.0       0.0       0.0
 1 C  f-3             0.0       0.1       0.2       0.0       0.0       0.0
 2 C  s               0.7       1.1       0.7       0.0       0.0       0.0
 2 C  px              0.8       0.6       0.1       0.0       0.0       0.0
 2 C  py              0.3       1.2       0.0       0.0       0.0       0.0
 2 C  dz2             0.1       0.1       0.1       0.0       0.0       0.0
 2 C  dx2y2           1.2       0.4       1.4       0.0       0.0       0.0
 2 C  dxy             1.7       0.8       0.5       0.0       0.0       0.0
 2 C  f+1             0.1       0.2       0.0       0.0       0.0       0.0
 2 C  f+3             0.3       0.4       2.0       0.0       0.0       0.0
 2 C  f-3             0.0       0.6       0.5       0.0       0.0       0.0
 3 C  s               0.1       0.5       0.0       0.0       0.0       0.0
 3 C  py              0.0       0.2       0.1       0.0       0.0       0.0
 3 C  dxy             0.1       0.0       0.1       0.0       0.0       0.0
 3 C  f+3             0.0       0.1       0.2       0.0       0.0       0.0
 4 C  s               0.0       0.1       0.1       0.0       0.0       1.0
 4 C  px              0.0       0.0       0.0       0.0       0.0       0.4
 6 Cl s               0.0       0.0       0.0       0.0       0.0       0.9
 6 Cl pz              0.0       0.0       0.0     100.0       0.0       0.0
 6 Cl px              0.0       0.0       0.0       0.0       9.8      87.6
 6 Cl py              0.0       0.0       0.0       0.0      89.8       9.6
 7 O  s               2.2       1.1       3.0       0.0       0.0       0.0
 7 O  px              1.3       2.4       0.9       0.0       0.0       0.0
 7 O  py              3.0       0.3       0.0       0.0       0.0       0.0
 7 O  dz2            40.9       8.1       5.7       0.0       0.0       0.0
 7 O  dx2y2          29.3       9.0      37.0       0.0       0.0       0.0
 7 O  dxy             0.8      64.3      10.2       0.0       0.0       0.0
 7 O  f+1             0.7       3.7       2.5       0.0       0.0       0.0
 7 O  f-1             6.8       0.2       0.7       0.0       0.0       0.0
 7 O  f+3             4.2       1.5       1.3       0.0       0.0       0.0
 7 O  f-3             1.8       1.4      23.9       0.0       0.0       0.0
12 H  s               2.2       0.3       6.6       0.0       0.0       0.0
12 H  px              0.3       0.0       0.4       0.0       0.0       0.0
12 H  py              0.0       0.1       0.1       0.0       0.0       0.0

                    276       277       278       279       280       281   
                  20.38921  20.99295  21.04517  21.11127  21.19764  21.56286
                   0.00000   0.00000   0.00000   0.00000   0.00000   0.00000
                  --------  --------  --------  --------  --------  --------
 0 C  s              18.7      15.8      39.9       1.9      14.8       6.9
 0 C  px              0.0       0.5       0.2       0.0       0.0       0.0
 0 C  dxy             0.0       0.1       0.0       0.0       0.0       0.0
 1 C  s              15.5      35.6      12.0      20.5       0.8      13.7
 1 C  px              0.1       0.0       0.1       0.0       0.0       0.0
 1 C  py              0.0       0.0       0.3       0.1       0.2       0.0
 2 C  s               9.4       0.5       3.0       0.4      38.3      46.1
 2 C  px              0.1       0.1       0.0       0.2       0.0       0.0
 2 C  py              0.1       0.2       0.0       0.2       0.0       0.0
 2 C  dx2y2           0.0       0.1       0.0       0.2       0.0       0.0
 2 C  dxy             0.1       0.0       0.0       0.0       0.0       0.0
 3 C  s              16.7       0.2       3.5      60.7       1.1      15.7
 3 C  px              0.0       0.3       0.0       0.0       0.3       0.0
 3 C  py              0.2       0.0       0.0       0.0       0.0       0.0
 3 C  dxy             0.0       0.1       0.0       0.0       0.1       0.0
 4 C  s              24.1      22.7      15.6       3.9      26.7       5.1
 4 C  px              0.0       0.0       0.0       0.1       0.1       0.0
 4 C  py              0.0       0.0       0.4       0.4       0.0       0.0
 4 C  dxy             0.0       0.0       0.0       0.1       0.0       0.0
 5 C  s              14.0      22.4      23.7      10.6      16.5      10.6
 5 C  px              0.1       0.2       0.1       0.0       0.0       0.0
 5 C  py              0.1       0.2       0.2       0.0       0.0       0.0
 5 C  dx2y2           0.0       0.1       0.1       0.0       0.0       0.0
 6 Cl s               0.0       0.3       0.1       0.0       0.2       0.0
 7 O  s               0.2       0.0       0.0       0.0       0.1       0.1
 7 O  px              0.0       0.0       0.0       0.0       0.1       0.1
 8 H  s               0.1       0.0       0.1       0.0       0.0       0.0
10 H  s               0.1       0.0       0.0       0.1       0.0       0.1

                    282       283   
                  24.61825  41.54528
                   0.00000   0.00000
                  --------  --------
 3 C  px              0.2       0.0
 4 C  s               0.4       0.0
 4 C  px              0.6       0.0
 4 C  dx2y2           0.4       0.0
 4 C  dxy             0.2       0.0
 5 C  px              0.1       0.0
 6 Cl s              96.8       0.0
 6 Cl px              0.3       0.0
 7 O  s               0.0      99.7


                      *****************************
                      * MAYER POPULATION ANALYSIS *
                      *****************************

  NA   - Mulliken gross atomic population
  ZA   - Total nuclear charge
  QA   - Mulliken gross atomic charge
  VA   - Mayer's total valence
  BVA  - Mayer's bonded valence
  FA   - Mayer's free valence

  ATOM       NA         ZA         QA         VA         BVA        FA
  0 C      6.1117     6.0000    -0.1117     3.9608     3.9608     0.0000
  1 C      6.2115     6.0000    -0.2115     3.9096     3.9096     0.0000
  2 C      5.7351     6.0000     0.2649     3.9999     3.9999    -0.0000
  3 C      6.2606     6.0000    -0.2606     3.9649     3.9649     0.0000
  4 C      5.8207     6.0000     0.1793     3.8872     3.8872     0.0000
  5 C      6.2070     6.0000    -0.2070     4.0022     4.0022     0.0000
  6 Cl    17.1013    17.0000    -0.1013     1.1974     1.1974    -0.0000
  7 O      8.3843     8.0000    -0.3843     2.0973     2.0973     0.0000
  8 H      0.8733     1.0000     0.1267     0.9689     0.9689    -0.0000
  9 H      0.8849     1.0000     0.1151     0.9766     0.9766    -0.0000
 10 H      0.8585     1.0000     0.1415     0.9872     0.9872     0.0000
 11 H      0.8667     1.0000     0.1333     0.9788     0.9788     0.0000
 12 H      0.6844     1.0000     0.3156     0.9150     0.9150     0.0000

  Mayer bond orders larger than 0.100000
B(  0-C ,  1-C ) :   1.4333 B(  0-C ,  5-C ) :   1.4241 B(  0-C ,  8-H ) :   0.9589 
B(  1-C ,  2-C ) :   1.3692 B(  1-C ,  9-H ) :   0.9570 B(  2-C ,  3-C ) :   1.3816 
B(  2-C ,  7-O ) :   1.1474 B(  3-C ,  4-C ) :   1.4082 B(  3-C , 10-H ) :   0.9674 
B(  4-C ,  5-C ) :   1.3984 B(  4-C ,  6-Cl) :   0.9823 B(  5-C , 11-H ) :   0.9670 
B(  7-O , 12-H ) :   0.8879 

-------
TIMINGS
-------

Total SCF time: 0 days 0 hours 2 min 20 sec 

Total time                  ....     140.224 sec
Sum of individual times     ....     137.592 sec  ( 98.1%)

SCF preparation             ....       0.226 sec  (  0.2%)
Fock matrix formation       ....     136.025 sec  ( 97.0%)
  Startup                   ....       0.067 sec  (  0.0% of F)
  Split-RI-J                ....       5.542 sec  (  4.1% of F)
  Chain of spheres X        ....     116.689 sec  ( 85.8% of F)
  XC integration            ....      15.231 sec  ( 11.2% of F)
    XC Preparation          ....       0.000 sec  (  0.0% of XC)
    Basis function eval.    ....       3.372 sec  ( 22.1% of XC)
    Density eval.           ....       2.893 sec  ( 19.0% of XC)
    XC-Functional eval.     ....       3.085 sec  ( 20.3% of XC)
    XC-Potential eval.      ....       5.102 sec  ( 33.5% of XC)
Diagonalization             ....       0.000 sec  (  0.0%)
Density matrix formation    ....       0.223 sec  (  0.2%)
Total Energy calculation    ....       0.046 sec  (  0.0%)
Population analysis         ....       0.167 sec  (  0.1%)
Orbital Transformation      ....       0.078 sec  (  0.1%)
Orbital Orthonormalization  ....       0.000 sec  (  0.0%)
DIIS solution               ....       0.363 sec  (  0.3%)
  MO trafo                  ....       0.000 sec  (  0.0 % of DIIS)
  Orb grad                  ....       0.000 sec  (  0.0 % of DIIS)
  Energy W gradient         ....       0.000 sec  (  0.0 % of DIIS)
  DIIS error                ....       0.013 sec  (  3.7 % of DIIS)
  DIIS work                 ....       0.301 sec  ( 83.0 % of DIIS)
  Form Q                    ....       0.000 sec  (  0.0 % of DIIS)
  Form QpQm                 ....       0.000 sec  (  0.0 % of DIIS)
  Exp/Cayley                ....       0.000 sec  (  0.0 % of DIIS)
  Orb update                ....       0.000 sec  (  0.0 % of DIIS)
  Wake-sleep                ....       0.012 sec  (  3.2 % of DIIS)
SOSCF solution              ....       0.287 sec  (  0.2%)
  MO trafo                  ....       0.093 sec  ( 32.5 % of SOSCF)
  Orb grad                  ....       0.004 sec  (  1.2 % of SOSCF)
  Rot update                ....       0.111 sec  ( 38.7 % of SOSCF)
  Step                      ....       0.079 sec  ( 27.6 % of SOSCF)
Grid generation             ....       0.180 sec  (  0.1%)
Finished LeanSCF after 140.3 sec

Maximum memory used throughout the entire LEANSCF-calculation: 35.8 MB
------------------   -----------------
gCP correction             0.006548436
------------------   -----------------

-------------------------   --------------------
FINAL SINGLE POINT ENERGY      -767.033452016756
-------------------------   --------------------


------------------------------------------------------------------------------
                              ORCA PROPERTY CALCULATIONS
------------------------------------------------------------------------------

GBWName                                 ... sp_gas.gbw
Number of atoms                         ...     13
Number of basis functions               ...    284
Max core memory                         ...   1024 MB

Electric properties:
Dipole moment                           ... YES
Quadrupole moment                       ...  NO
Static polarizability (Dipole/Dipole)   ...  NO
Static polarizability (Dipole/Quad.)    ...  NO
Static polarizability (Quad./Quad.)     ...  NO
Static polarizability (Velocity)        ...  NO

Atomic electric properties:
Dipole moment                           ...  NO
Quadrupole moment                       ...  NO
Static polarizability                   ...  NO

Choice of electric origin               ... Center of mass
Position of electric origin             ...    -0.005874     0.005812     0.000051

General magnetic properties:
Magnetizability                         ...  NO

EPR properties:
g-Tensor (aka g-matrix)                 ...  NO
Zero-Field splitting spin-orbit         ...  NO
Zero-field splitting spin-spin          ...  NO
Hyperfine couplings                     ...  NO (   0 nuclei)
Quadrupole couplings                    ...  NO (   0 nuclei)
Contact density                         ...  NO (   0 nuclei)

NMR properties:
Chemical shifts                         ...  NO (   0 nuclei)
Spin-rotation constants                 ...  NO (   0 nuclei)
Spin-spin couplings                     ...  NO (   0 nuclei,    0 pairs)

Choice of magnetic origin               ... GIAO
Position of magnetic origin             ...     0.000000     0.000000     0.000000

Properties with geometric perturbations:
SCF Hessian                             ...  NO
IR spectrum                             ...  NO
VCD spectrum                            ...  NO
X-ray spectroscopy properties:
SCF XES/XAS/RIXS spectra                ...  NO


-------------
DIPOLE MOMENT
-------------

Method             : SCF
Type of density    : Electron Density
Multiplicity       :   1
Irrep              :   0
Energy             :  -767.0400004530562228 Eh
Relativity type    : 
Basis              : AO
                                X                 Y                 Z
Electronic contribution:     -7.997811907       3.190231286      -0.000097151
Nuclear contribution   :      9.035785739      -3.812117784       0.000107010
                        -----------------------------------------
Total Dipole Moment    :      1.037973832      -0.621886498       0.000009860
                        -----------------------------------------
Magnitude (a.u.)       :      1.210013427
Magnitude (Debye)      :      3.075609708



--------------------
Rotational spectrum 
--------------------
 
Rotational constants in cm-1:             0.114712             0.039427             0.029342 
Rotational constants in MHz :          3438.982738          1182.004158           879.658824 

Dipole components along the rotational axes: 
x,y,z [a.u.] :     1.045082    -0.609866    -0.000008 
x,y,z [Debye]:     2.656386    -1.550157    -0.000021 

 

Dipole moment calculation done in   0.0 sec 

Maximum memory used throughout the entire PROP-calculation: 22.8 MB

--------------------------------
SUGGESTED CITATIONS FOR THIS RUN
--------------------------------

Below you find a list of papers that are relevant to this ORCA run
We neither can nor want to force you to cite these papers, but we appreciate if you do
You receive ORCA, which is the product of decades of hard work by many enthusiastic individuals, for free
The only thing we kindly ask in return is that you cite our papers,
We deeply appreciate it, if you show your appreciation for ORCA by not just citing the generic ORCA reference.

Please note that relegating all ORCA citations to the supporting information does *not* help us.
SI sections are not indexed - citations you put there will not count into any citation statistics
But we need these citations in order to attract the funding resources that allow us to do what we are doing

Therefore, if you are a happy ORCA user, please consider citing a few of the papers listed below in the main body of your paper

In addition to the list printed below, the program has created the file sp_gas.bibtex that contains the list in bibtex format
You can import this file easily into all common literature databanks and citation aid programs


List of essential papers. We consider these as the minimum necessary citations

  1. Neese,F.
     Software update: the ORCA program system, version 5.0
     WIRES Comput. Molec. Sci., 2022 12(1)e1606
     doi.org/10.1002/wcms.1606

List of papers to cite with high priority. The work reported in these papers was absolutely
necessary for this run to complete.
Our perspective: the developers of density functionals and basis sets usually get cited in chemistry papers
Good! But without the algorithms to do something with them, the functionals or basis sets would not do anything.
Hence, in our opinion, the algorithm design and method developments papers are equally worthy of getting cited

  1. Neese,F.
     An improvement of the resolution of the identity approximation for the formation of the Coulomb matrix
     J. Comp. Chem., 2003 24(14)1740-1747
     doi.org/10.1002/jcc.10318
  2. Neese,F.; Wennmohs,F.; Hansen,A.; Becker,U.
     Efficient, approximate and parallel Hartree-Fock and hybrid DFT calculations. A 'chain-of-spheres' algorithm for the Hartree-Fock exchange
     Chem. Phys., 2009 356(1-3)98-109
     doi.org/10.1016/j.chemphys.2008.10.036
  3. Helmich-Paris,B.; de Souza,B.; Neese,F.; Izsák,R.
     An improved chain of spheres for exchange algorithm
     J. Chem. Phys., 2021 155 104109
     doi.org/doi: 10.1063/5.0058766.
  4. Neese,F.
     The SHARK Integral Generation and Digestion System
     J. Comp. Chem., 2022  1-16
     doi.org/10.1002/jcc.26942

List of suggested additional citations. These are papers that are important in the 'surrounding' of 
of this run, or papers that preceded the highly important papers. If you like your results we are grateful for a citation.

  1. Izsak,R.; Neese,F.
     An overlap fitted chain of spheres exchange method
     J. Chem. Phys., 2011 135 144105
     doi.org/10.1063/1.3646921
  2. Izsak,R.; Hansen,A.; Neese,F.
     The resolution of identity and chain of spheres approximations for the LPNO-CCSD singles Fock term
     Molec. Phys., 2012 110 2413-2417
     doi.org/10.1080/00268976.2012.687466
  3. Neese,F.
     The ORCA program system
     WIRES Comput. Molec. Sci., 2012 2(1)73-78
     doi.org/10.1002/wcms.81
  4. Izsak,R.; Neese,F.; Klopper,W.
     Robust fitting techniques in the chain of spheres approximation to the Fock exchange: The role of the complementary space
     J. Chem. Phys., 2013 139 
     doi.org/10.1063/1.4819264
  5. Neese,F.
     Software update: the ORCA program system, version 4.0
     WIRES Comput. Molec. Sci., 2018 8(1)1-6
     doi.org/10.1002/wcms.1327
  6. Neese,F.; Wennmohs,F.; Becker,U.; Riplinger,C.
     The ORCA quantum chemistry program package
     J. Chem. Phys., 2020 152 Art. No. L224108
     doi.org/10.1063/5.0004608

List of optional additional citations

  1. Neese,F.
     Approximate second-order SCF convergence for spin unrestricted wavefunctions
     Chem. Phys. Lett., 2000 325(1-3)93-98
     doi.org/10.1016/s0009-2614(00)00662-x

Timings for individual modules:

Sum of individual times          ...      142.803 sec (=   2.380 min)
Startup calculation              ...        2.076 sec (=   0.035 min)   1.5 %
SCF iterations                   ...      140.608 sec (=   2.343 min)  98.5 %
Property calculations            ...        0.120 sec (=   0.002 min)   0.1 %
                             ****ORCA TERMINATED NORMALLY****
TOTAL RUN TIME: 0 days 0 hours 2 minutes 23 seconds 451 msec
