19
 energy: -23.033066907452 gnorm: 0.029371655854 xtb: 6.7.1 (edcfbbe)
C           -1.65178822249362       -0.97837659788871       -0.83354056453075
C           -0.90904928746397        0.01130115873383        0.00812336381481
O           -1.51579265246215        0.82057664470853        0.70536652436252
C            0.62564954467454        0.01855220143725        0.00587759686859
C            1.08041580640052       -0.27243868631694        1.44715914881192
C            1.08149785040151        1.42828951420133       -0.40737860280973
C            1.23969871408070       -1.01430838347191       -0.94181090854764
H           -1.37862444042151       -0.85345270028750       -1.88736852509547
H           -1.36065424812769       -1.99804558675749       -0.55809726310535
H           -2.72787014563607       -0.85040069881399       -0.70907359518025
H            0.74388440550759       -1.26177911133566        1.77574719315972
H            2.17413648663100       -0.25212953151578        1.49249933846750
H            0.69021639168457        0.47662250838604        2.14148049328850
H            2.17509496957536        1.47543271783867       -0.39027022257717
H            0.69056348199812        2.18517264811224        0.27762183645332
H            0.74514222427225        1.66808228947376       -1.42187412527035
H            2.33092729756611       -0.94802017110955       -0.88241273366712
H            0.95150458949740       -0.83312046875364       -1.98179045938719
H            0.95381858090180       -2.03586719032534       -0.67382470750204
19
 energy: -23.033912365409 gnorm: 0.008994777775 xtb: 6.7.1 (edcfbbe)
C           -1.63951156950886       -0.97568346162503       -0.83075388169849
C           -0.90647998470077        0.01826732474003        0.01186475699808
O           -1.50858496115840        0.82189623173029        0.70555036209207
C            0.62374226951347        0.01294696661583        0.00096161794236
C            1.08149071132090       -0.27347895954680        1.43871506045381
C            1.08263341263924        1.41983738464940       -0.40711619108739
C            1.24043280729430       -1.01616960347313       -0.94354068296775
H           -1.37395056984566       -0.84377322704131       -1.87909946908735
H           -1.35529307407531       -1.98855310016031       -0.54765837976702
H           -2.71089702014195       -0.84516519931047       -0.70375573226703
H            0.74223462285104       -1.25721211608807        1.76121316464064
H            2.16892149650367       -0.24539999504624        1.49512284390281
H            0.67507705425174        0.47040480674377        2.12170629621754
H            2.16996331982210        1.47863039577049       -0.38250332111814
H            0.67488722937275        2.16489810574916        0.27360738938159
H            0.74463420506644        1.65551913885662       -1.41560416631194
H            2.32604735314986       -0.94964774674536       -0.88454834359992
H            0.95031571376071       -0.83159219570297       -1.97584260959051
H            0.95310833047117       -2.02963419380076       -0.67188492657955
19
 energy: -23.034010191656 gnorm: 0.001608488889 xtb: 6.7.1 (edcfbbe)
C           -1.63329369332742       -0.97413022456875       -0.82885530177728
C           -0.90213315287216        0.02179982133836        0.01554536071503
O           -1.50075588947211        0.82533316345681        0.70668009844626
C            0.62618603633866        0.01089979602109       -0.00114747441337
C            1.08053630144222       -0.27594740593455        1.43747173916141
C            1.08224275981478        1.41882261341020       -0.40901129348690
C            1.23845285979832       -1.01923544294345       -0.94656572762260
H           -1.36891311307333       -0.83865203581047       -1.87408638722935
H           -1.35120977443308       -1.98314414808136       -0.54070383889936
H           -2.70420678994738       -0.84251348629067       -0.70185177030445
H            0.74620939543771       -1.26108671438235        1.75494897428928
H            2.16475220975011       -0.23794027448800        1.49912776066000
H            0.66225527504521        0.46341862679491        2.11652587367749
H            2.16636430407029        1.48408668131330       -0.37421831119962
H            0.66184825186336        2.15915295231349        0.26763367114473
H            0.74980815371052        1.65008156716096       -1.41855264257705
H            2.32184172868827       -0.95128276869732       -0.88733006854856
H            0.94742145263924       -0.83354029922335       -1.97625003833005
H            0.95136503111325       -2.03003186507370       -0.67292683615177
19
 energy: -23.034038998340 gnorm: 0.001944224553 xtb: 6.7.1 (edcfbbe)
C           -1.63389422260866       -0.97354606304671       -0.82696475260438
C           -0.90137725838745        0.02532547084844        0.01583679125915
O           -1.49795766588571        0.82911689966367        0.70762782973634
C            0.62680552929609        0.01023925029940       -0.00258663122571
C            1.08095282862061       -0.27757600121823        1.43665392183386
C            1.08397261028077        1.41866886268323       -0.40981113465308
C            1.23834809378184       -1.02043202707521       -0.94845001483925
H           -1.36927174856561       -0.83716040615022       -1.87118525434072
H           -1.35074823518231       -1.98035163256061       -0.53491445178565
H           -2.70527156231219       -0.84185756251931       -0.69959649331266
H            0.75559820239375       -1.26775358354221        1.74771164876355
H            2.16400897639007       -0.22728352122866        1.50377856221938
H            0.65017927453801        0.45470813204421        2.11589390389021
H            2.16685062968206        1.48989268425478       -0.36143227094019
H            0.65015477426125        2.15819184611879        0.25958195940895
H            0.76210047242569        1.64378668243804       -1.42417881262057
H            2.32176675886816       -0.95250541986612       -0.89016075958265
H            0.94577247973039       -0.83474912589138       -1.97747243669305
H            0.95078140925970       -2.03062392893675       -0.67389781695972
19
 energy: -23.034063697146 gnorm: 0.001784230024 xtb: 6.7.1 (edcfbbe)
C           -1.63658662972505       -0.97298962515929       -0.82429890828432
C           -0.90105138052021        0.02614741782608        0.01720985463212
O           -1.49583396485097        0.83393712945893        0.70662023346713
C            0.62732618509010        0.01049049962704       -0.00343164082842
C            1.08108770105852       -0.27910393768384        1.43614392478410
C            1.08612611178757        1.41909269775317       -0.41030449102426
C            1.23724924827542       -1.02066541526521       -0.95025771287669
H           -1.37084662144221       -0.83888539274158       -1.86878205348671
H           -1.35393519022048       -1.97914896875783       -0.52886172049801
H           -2.70798956296026       -0.83942069120464       -0.69717651713098
H            0.77189898173851       -1.27764253421205        1.73913688293973
H            2.16327247705774       -0.21082223237442        1.50751358397066
H            0.63577015027483        0.44151661609600        2.11910694341526
H            2.16797389412633        1.49582843133458       -0.34180503356948
H            0.63665089857567        2.16086670620635        0.24676813645461
H            0.78291613334234        1.63659901154769       -1.43279451630013
H            2.32117828767539       -0.95248228961639       -0.89363989867809
H            0.94317710649857       -0.83579509441642       -1.97951002569209
H            0.95038752080465       -2.03143177210303       -0.67520325374058
19
 energy: -23.034072352994 gnorm: 0.001025690847 xtb: 6.7.1 (edcfbbe)
C           -1.63805638772373       -0.97320586780550       -0.82215068185853
C           -0.90157942300090        0.02860905937566        0.01403398023653
O           -1.49617387658678        0.83607804832275        0.70445743577052
C            0.62694454601122        0.01121292520686       -0.00390995175146
C            1.08074046363634       -0.27972768111522        1.43518866165751
C            1.08763177508294        1.41906598021402       -0.40967455391752
C            1.23664378139104       -1.01971478085948       -0.95076547280179
H           -1.37405128671982       -0.84294424879512       -1.86791409268726
H           -1.35522159331339       -1.97945256634596       -0.52565877895467
H           -2.70897005367373       -0.83914421036036       -0.69370006689786
H            0.77964779182667       -1.28156792018423        1.73487540486289
H            2.16234781992010       -0.20352809745853        1.50807584181600
H            0.63001513954767        0.43481525670519        2.12050717372227
H            2.16871857028195        1.49657835008872       -0.33079483381974
H            0.63185096980097        2.16270770173280        0.24041420768803
H            0.79512509629145        1.63374920400736       -1.43573133177281
H            2.32071350312441       -0.95176983558927       -0.89452177112010
H            0.94253116336525       -0.83487291708962       -1.98015584057968
H            0.94991334732479       -2.03079784373495       -0.67614154203847
19
 energy: -23.034075844792 gnorm: 0.000347229939 xtb: 6.7.1 (edcfbbe)
C           -1.63843630627953       -0.97360005747696       -0.82048511365027
C           -0.90185909301624        0.02787317279527        0.01446519191674
O           -1.49649521116536        0.83841802423568        0.70127261741194
C            0.62669545706945        0.01148632971121       -0.00441327326746
C            1.08048641193276       -0.27979395637421        1.43420537527296
C            1.08900120913931        1.41882046432295       -0.40889404130756
C            1.23616291997638       -1.01901981197457       -0.95153771074481
H           -1.37465250656687       -0.84672654388364       -1.86684500333777
H           -1.35735542637572       -1.98003403839648       -0.52272956294296
H           -2.70902532462686       -0.83792218105773       -0.69243122552773
H            0.78396379620409       -1.28315654665628        1.73193801610342
H            2.16156442991476       -0.19876055189698        1.50762392151904
H            0.62629011503229        0.43135724250758        2.12036889641612
H            2.16939141385895        1.49709992778499       -0.32337106286167
H            0.62898870892498        2.16283747826743        0.23731899148145
H            0.80296788422748        1.63227914382897       -1.43655967853898
H            2.32013415820911       -0.95120773870448       -0.89581192205274
H            0.94153972830298       -0.83387426482477       -1.98060324981667
H            0.94940898182448       -2.02998553589284       -0.67707737851920
19
 energy: -23.034076838434 gnorm: 0.000229704254 xtb: 6.7.1 (edcfbbe)
C           -1.63828617676248       -0.97438562788469       -0.81942577101035
C           -0.90153174539613        0.02864695870411        0.01339917313933
O           -1.49602581007521        0.84025039808429        0.69907466966770
C            0.62704049948847        0.01177073801720       -0.00490437929858
C            1.07991566967218       -0.28011894020484        1.43400166115404
C            1.08976004445463        1.41929076907945       -0.40850310895657
C            1.23574875787654       -1.01889560305779       -0.95246756612474
H           -1.37496974524649       -0.84928000612144       -1.86610519150282
H           -1.35728406618065       -1.98036542413193       -0.52001927401055
H           -2.70893577412074       -0.83848856424666       -0.69130445518061
H            0.78419358248742       -1.28395034099844        1.73113105325331
H            2.16089611747351       -0.19792162231556        1.50795368943252
H            0.62468441942984        0.43054079925238        2.12014807187429
H            2.16994453273450        1.49764180140376       -0.32006965825744
H            0.62797886590776        2.16310634972415        0.23687557097458
H            0.80625931004471        1.63275699828574       -1.43693688805723
H            2.31968722085721       -0.95146085004373       -0.89671281039598
H            0.94111321275404       -0.83323885705916       -1.98144482210321
H            0.94858243118735       -2.02980842017171       -0.67825617704386
19
 energy: -23.034077722612 gnorm: 0.000184820689 xtb: 6.7.1 (edcfbbe)
C           -1.63839226446757       -0.97543649731825       -0.81837473383970
C           -0.90154399027271        0.02953633457188        0.01223630220668
O           -1.49600214820256        0.84253990207983        0.69634570904498
C            0.62708844477856        0.01206139246264       -0.00546568244306
C            1.07943596746179       -0.28049422156338        1.43364273466632
C            1.09060318540675        1.41972742048147       -0.40793333097007
C            1.23565117600977       -1.01859143262707       -0.95328584364693
H           -1.37522881492305       -0.85206959031771       -1.86528397982860
H           -1.35721378409488       -1.98075794254999       -0.51701689359271
H           -2.70914770636896       -0.83943445168544       -0.69041945516008
H            0.78355102193891       -1.28437551025770        1.73056852583699
H            2.16040350371331       -0.19829822199693        1.50814903173350
H            0.62402559427415        0.43025512456051        2.11967294816770
H            2.17058304839479        1.49823918187027       -0.31739148668711
H            0.62750477629343        2.16323897458738        0.23695980345583
H            0.80893571179252        1.63354184951340       -1.43682219596161
H            2.31965295635782       -0.95168533273548       -0.89762166498113
H            0.94090080518238       -0.83245423229979       -1.98217105586100
H            0.94796386331200       -2.02945219046053       -0.67935494458615
19
 energy: -23.034078694448 gnorm: 0.000212627198 xtb: 6.7.1 (edcfbbe)
C           -1.63835554003624       -0.97657527904236       -0.81723921886107
C           -0.90153243275592        0.03043503403078        0.01120841616883
O           -1.49601246829883        0.84511026241693        0.69326955714296
C            0.62709848048407        0.01242635730096       -0.00597853007625
C            1.07879599118805       -0.28094364641741        1.43326572084323
C            1.09137092664749        1.42016526098126       -0.40735549381818
C            1.23555191009817       -1.01810459626775       -0.95404428880211
H           -1.37521917221943       -0.85497597962409       -1.86433603295294
H           -1.35693819789565       -1.98114393159093       -0.51383181510584
H           -2.70915327009117       -0.84046546804861       -0.68955184078493
H            0.78185609042314       -1.28457519323253        1.72999797579241
H            2.15981832739416       -0.19984322233296        1.50799303706937
H            0.62399763094744        0.43022327223634        2.11929904443551
H            2.17116786244199        1.49866739605674       -0.31532851162143
H            0.62733867937706        2.16340513706271        0.23719426868918
H            0.81098585511405        1.63435224462466       -1.43651670969484
H            2.31957266002482       -0.95146563328126       -0.89836213735377
H            0.94080900152119       -0.83163187889107       -1.98288631071121
H            0.94761901222206       -2.02896957966631       -0.68036334280507
19
 energy: -23.034080296234 gnorm: 0.000310935766 xtb: 6.7.1 (edcfbbe)
C           -1.63826817872524       -0.97824155791333       -0.81548714577568
C           -0.90156886553981        0.03171455094287        0.00979896175693
O           -1.49616451659251        0.84893367447171        0.68866270837637
C            0.62704187856522        0.01305481535442       -0.00669988878380
C            1.07769383652219       -0.28173091867004        1.43266202151780
C            1.09244199640558        1.42082188394994       -0.40659614397805
C            1.23555031565498       -1.01720835177915       -0.95502112714807
H           -1.37520130828114       -0.85930384050048       -1.86289270505138
H           -1.35641136495428       -1.98172328104054       -0.50915638002273
H           -2.70909167115215       -0.84203347513735       -0.68815735702500
H            0.77842161699096       -1.28474702085548        1.72916326848941
H            2.15889932895354       -0.20312337069496        1.50756974076382
H            0.62442840136241        0.43037940927026        2.11874508175409
H            2.17205609535765        1.49913719976768       -0.31291254161189
H            0.62747568519860        2.16376057535979        0.23760825346055
H            0.81353107229105        1.63559983166127       -1.43604284065934
H            2.31958596564694       -0.95068319190240       -0.89930515515015
H            0.94082119634894       -0.83037103193333       -1.98381154859726
H            0.94752986253355       -2.02814534403578       -0.68169341476175
19
 energy: -23.034096025925 gnorm: 0.003310183650 xtb: 6.7.1 (edcfbbe)
C           -1.63710538003576       -1.00085217754120       -0.79125334355842
C           -0.90195290405644        0.04901195576371       -0.00979750344195
O           -1.49798803004742        0.90025376915227        0.62644533962063
C            0.62642743518420        0.02172720936212       -0.01672423148011
C            1.06205562106467       -0.29209040943928        1.42444605531235
C            1.10762464929732        1.42973800990968       -0.39623587418213
C            1.23547535338387       -1.00480433325733       -0.96883821983220
H           -1.37606621529372       -0.91902704914649       -1.84329840515199
H           -1.34905692447035       -1.98970645201980       -0.44532122333190
H           -2.70825336979820       -0.86362951080381       -0.66788109198983
H            0.73162759982737       -1.28704711761857        1.71707298620717
H            2.14560237656169       -0.24677292410664        1.50262677855598
H            0.62871437513135        0.43210571837212        2.11138958229919
H            2.18483103326880        1.50509636239238       -0.27932355510290
H            0.62994568707336        2.16905871765773        0.24277056733741
H            0.84977748268867        1.65238148248826       -1.42981795989759
H            2.31966840509652       -0.93957479032111       -0.91260467420405
H            0.94091910463120       -0.81301718658494       -1.99694536805082
H            0.94652504707934       -2.01676071794419       -0.70027607155485
19
 energy: -23.034104063544 gnorm: 0.003102241630 xtb: 6.7.1 (edcfbbe)
C           -1.63696218371714       -1.00479446789032       -0.78634653261036
C           -0.90190649572481        0.05191177310833       -0.01378268382745
O           -1.49830971718582        0.90808483442171        0.61461817301437
C            0.62633965346784        0.02350417089110       -0.01880100908301
C            1.05871885597469       -0.29399531432553        1.42274805416683
C            1.11074444713626        1.43143771370075       -0.39443162982146
C            1.23554499035367       -1.00240222049309       -0.97156337399339
H           -1.37647476648680       -0.92994310732481       -1.83882983065017
H           -1.34725031028012       -1.99024686101167       -0.43308958601360
H           -2.70821296887949       -0.86789422328541       -0.66335948739854
H            0.72284502060991       -1.28730628978139        1.71454568794240
H            2.14233176962061       -0.25449429397712        1.50195078000230
H            0.62874343872841        0.43206600556191        2.10978208187533
H            2.18735520854316        1.50588468222754       -0.27266550993016
H            0.63070468931710        2.17034562705956        0.24324272852244
H            0.85752723392502        1.65552118328313       -1.42887159795541
H            2.31979848202554       -0.93745271975746       -0.91527374882608
H            0.94092670654073       -0.80959350915498       -1.99950053771112
H            0.94630729261771       -2.01454242693739       -0.70393819014893
19
 energy: -23.034118287598 gnorm: 0.002747373678 xtb: 6.7.1 (edcfbbe)
C           -1.63631587934268       -1.00732234921731       -0.78131063048049
C           -0.90173861844455        0.05404177575954       -0.01746874069412
O           -1.49858831465001        0.91295473785845        0.60403005967584
C            0.62636661531120        0.02496227822710       -0.02076516273418
C            1.05520619422056       -0.29543495122091        1.42105221558761
C            1.11357491595695        1.43246153861432       -0.39298700779066
C            1.23561981086775       -1.00025316825152       -0.97440969560453
H           -1.37704462353919       -0.93984992736369       -1.83379428316006
H           -1.34551759296550       -1.98918405076648       -0.42178220725905
H           -2.70755163727975       -0.87065680062985       -0.65796016677914
H            0.71679993607631       -1.28775225204310        1.71098394806720
H            2.13808340809268       -0.25844209463621        1.50206115625379
H            0.62593163117544        0.43033295484399        2.10832897305802
H            2.18938353322939        1.50534070848862       -0.26546688864868
H            0.63132464171296        2.17176353580391        0.24241976954298
H            0.86625213442871        1.65738990093515       -1.42838327068238
H            2.31987326589349       -0.93535024412967       -0.91822116023683
H            0.94079765778687       -0.80629867920987       -2.00209741390980
H            0.94631426805587       -2.01261235674760       -0.70779570665147
19
 energy: -23.034134754605 gnorm: 0.003005610534 xtb: 6.7.1 (edcfbbe)
C           -1.63558889206058       -1.01314081619089       -0.77259827989880
C           -0.90165450499759        0.05874831280192       -0.02414511225836
O           -1.49904848299898        0.92613930547603        0.58413222040462
C            0.62636483317775        0.02788462759282       -0.02407086343043
C            1.04935471247225       -0.29860269891071        1.41814417857714
C            1.11885689866293        1.43482585436193       -0.39016357540186
C            1.23557238612587       -0.99611814065678       -0.97910986267745
H           -1.37813487160503       -0.95945454328279       -1.82618077011660
H           -1.34316665296518       -1.98975529254805       -0.40078818649297
H           -2.70682885093575       -0.87624518313676       -0.64955321323257
H            0.70481538127457       -1.28942829138788        1.70499308009739
H            2.13196959559699       -0.26777413308800        1.50180746709933
H            0.62261137147486        0.42787918671501        2.10599373068061
H            2.19366162835373        1.50561078086325       -0.25350826697819
H            0.63270973819931        2.17408301854103        0.24225182914453
H            0.88056291365839        1.66171809837552       -1.42713196007040
H            2.31978326409060       -0.93109872768874       -0.92296404424873
H            0.94053593979800       -0.80025303620453       -2.00638862831376
H            0.94639493926436       -2.00892776531760       -0.71428595532944
19
 energy: -23.034155380624 gnorm: 0.002724345386 xtb: 6.7.1 (edcfbbe)
C           -1.63493146230207       -1.01986915127557       -0.76314159837210
C           -0.90158960356792        0.06416836480309       -0.03152525035436
O           -1.49952262677376        0.94145243289297        0.56212997344147
C            0.62633728039585        0.03103166875284       -0.02774751798609
C            1.04293941797281       -0.30205921567314        1.41500552257600
C            1.12461580607659        1.43753466677138       -0.38689186072383
C            1.23565024831972       -0.99159208346320       -0.98428320980092
H           -1.37923470386679       -0.98103405145137       -1.81799328381599
H           -1.34056248892689       -1.99079726610136       -0.37772264371502
H           -2.70620066262748       -0.88272659010356       -0.64063520796934
H            0.69087714051366       -1.29114735087114        1.69866940147642
H            2.12555730346378       -0.27897593963168        1.50135283213882
H            0.61969546188806        0.42578895214150        2.10355310565825
H            2.19840457205282        1.50615580027269       -0.24113313872755
H            0.63455315805002        2.17654845939963        0.24275895398073
H            0.89532816017041        1.66680986069565       -1.42538909654331
H            2.31984366534283       -0.92657793164323       -0.92804168051045
H            0.94050675913275       -0.79376582895143       -2.01119443105024
H            0.94650392127211       -2.00485424024933       -0.72133708214838
19
 energy: -23.034181857341 gnorm: 0.002311325551 xtb: 6.7.1 (edcfbbe)
C           -1.63407684656678       -1.02780338205557       -0.75191515979140
C           -0.90148026003366        0.07054454245182       -0.04031077005549
O           -1.50008944363385        0.95931895422511        0.53596779354322
C            0.62631617034451        0.03474871638227       -0.03212163353378
C            1.03528869456288       -0.30613104079893        1.41127616734960
C            1.13141031294539        1.44072766084627       -0.38303580511700
C            1.23574587315653       -0.98626858520447       -0.99041703058729
H           -1.38041020792204       -1.00640358429701       -1.80807165780218
H           -1.33730221536987       -1.99180670892801       -0.35044064347412
H           -2.70539639778708       -0.89043484153802       -0.63004106838534
H            0.67429090450906       -1.29312202315316        1.69120033332748
H            2.11788081065972       -0.29223066928108        1.50084200940300
H            0.61615639462989        0.42338749049042        2.10059590073455
H            2.20397943352633        1.50666655794275       -0.22684531456907
H            0.63697487165229        2.17942135615565        0.24356423966661
H            0.91246635167458        1.67295863521141       -1.42319150574266
H            2.31992566992937       -0.92134982117925       -0.93398355207324
H            0.94055903240756       -0.78607863641080       -2.01691608660134
H            0.94653219790167       -2.00005406454475       -0.72972242873740
19
 energy: -23.034212553199 gnorm: 0.002083535745 xtb: 6.7.1 (edcfbbe)
C           -1.63305140645470       -1.03644754234364       -0.73936006561353
C           -0.90133099510472        0.07747851074859       -0.05010609375626
O           -1.50072055774474        0.97856448083350        0.50691891999596
C            0.62629320302153        0.03884191505786       -0.03701511741187
C            1.02667852084613       -0.31056379605989        1.40708533557655
C            1.13896665293937        1.44417327223695       -0.37879581057432
C            1.23589828082232       -0.98038558919941       -0.99724474873710
H           -1.38169950297917       -1.03431802857160       -1.79672094727617
H           -1.33351074252235       -1.99254708041683       -0.32025741884159
H           -2.70442309912042       -0.89892356387181       -0.61807812110351
H            0.65600627093137       -1.29528314888590        1.68272002484397
H            2.10916221607103       -0.30653580935994        1.50038024571096
H            0.61175187340667        0.42062768544440        2.09723650527585
H            2.21014056700294        1.50695870380420       -0.21134917755028
H            0.63999446455996        2.18257908032406        0.24454088800176
H            0.93127815493611        1.67976431278537       -1.42061631868582
H            2.32006260925913       -0.91565496383253       -0.94048119934291
H            0.94077583446839       -0.77750395384037       -2.02330173161452
H            0.94649900224766       -1.99473392853847       -0.73912138134296
19
 energy: -23.033586193218 gnorm: 0.030124605136 xtb: 6.7.1 (edcfbbe)
C           -1.62575511460581       -1.09582991028368       -0.65210865325263
C           -0.90024253704359        0.12518186275647       -0.11808751510411
O           -1.50492534278620        1.11083201495961        0.30617667286331
C            0.62623164333096        0.06716848684861       -0.07089929779728
C            0.96640818476980       -0.34094505581842        1.37804600891990
C            1.19155500636339        1.46768597926311       -0.34975143508447
C            1.23712631994093       -0.93958651447382       -1.04448083243064
H           -1.39110112097668       -1.22765333756766       -1.71753978285523
H           -1.30703475454281       -1.99715086333954       -0.11161813960467
H           -2.69744145899534       -0.95730293185832       -0.53453960879187
H            0.53066532827466       -1.31109148633756        1.62261390393699
H            2.04816980031964       -0.40280082087272        1.49826900944186
H            0.57795354118129        0.40035066208014        2.07419074487194
H            2.25324126312282        1.50750815329892       -0.10713311674741
H            0.66368670655414        2.20445892252276        0.25226286012116
H            1.05973061154413        1.72714215213236       -1.40210634714086
H            2.32111669410129       -0.87640435457329       -0.98454993640928
H            0.94331479697500       -0.71765127816071       -2.06761902753562
H            0.94607177905893       -1.95782112426225       -0.80469171984653
19
 energy: -23.034283356379 gnorm: 0.005662697958 xtb: 6.7.1 (edcfbbe)
C           -1.62906709629576       -1.06323885586649       -0.69813385745383
C           -0.90076113009519        0.09811190573862       -0.08071726948848
O           -1.50171092679905        1.03064865692749        0.42525732086492
C            0.62651860721922        0.05288022208921       -0.05387917031825
C            0.99441776423994       -0.32252229491118        1.39305631255067