
                                 *****************
                                 * O   R   C   A *
                                 *****************

                                            #,                                       
                                            ###                                      
                                            ####                                     
                                            #####                                    
                                            ######                                   
                                           ########,                                 
                                     ,,################,,,,,                         
                               ,,#################################,,                 
                          ,,##########################################,,             
                       ,#########################################, ''#####,          
                    ,#############################################,,   '####,        
                  ,##################################################,,,,####,       
                ,###########''''           ''''###############################       
              ,#####''   ,,,,##########,,,,          '''####'''          '####       
            ,##' ,,,,###########################,,,                        '##       
           ' ,,###''''                  '''############,,,                           
         ,,##''                                '''############,,,,        ,,,,,,###''
      ,#''                                            '''#######################'''  
     '                                                          ''''####''''         
             ,#######,   #######,   ,#######,      ##                                
            ,#'     '#,  ##    ##  ,#'     '#,    #''#        ,####,   ,####,        
            ##       ##  ##   ,#'  ##            #'  '#       #'       #'  '#        
            ##       ##  #######   ##           ,######,      #####,   #    #        
            '#,     ,#'  ##    ##  '#,     ,#' ,#      #,     #,   #   #,  ,#        
             '#######'   ##     ##  '#######'  #'      '#     '####' # '####'        



                #########################################################
                #                        -***-                          #
                #          Department of theory and spectroscopy        #
                #                                                       #
                #                      Frank Neese                      #
                #                                                       #
                #     Directorship, Architecture, Infrastructure        #
                #                    SHARK, DRIVERS                     #
                #        Core code/Algorithms in most modules           #
                #                                                       #
                #        Max Planck Institute fuer Kohlenforschung      #
                #                Kaiser Wilhelm Platz 1                 #
                #                 D-45470 Muelheim/Ruhr                 #
                #                      Germany                          #
                #                                                       #
                #                  All rights reserved                  #
                #                        -***-                          #
                #########################################################


                         Program Version 6.0.0  -   RELEASE  -


 With contributions from (in alphabetic order):
   Daniel Aravena         : Magnetic Suceptibility
   Michael Atanasov       : Ab Initio Ligand Field Theory (pilot matlab implementation)
   Alexander A. Auer      : GIAO ZORA, VPT2 properties, NMR spectrum
   Ute Becker             : All parallelization in ORCA, NUMFREQ, NUMCALC
   Giovanni Bistoni       : ED, misc. LED, open-shell LED, HFLD
   Martin Brehm           : Molecular dynamics
   Dmytro Bykov           : pre 5.0 version of the SCF Hessian
   Marcos Casanova-Páez   : Triplet and SCS-CIS(D). UHF-(DLPNO)-IP/EA/STEOM-CCSD. UHF-CVS-IP/STEOM-CCSD
   Vijay G. Chilkuri      : MRCI spin determinant printing, contributions to CSF-ICE
   Pauline Colinet        : FMM embedding
   Dipayan Datta          : RHF DLPNO-CCSD density
   Achintya Kumar Dutta   : EOM-CC, STEOM-CC
   Nicolas Foglia         : Exact transition moments, OPA infrastructure, MCD improvements
   Dmitry Ganyushin       : Spin-Orbit,Spin-Spin,Magnetic field MRCI
   Miquel Garcia          : C-PCM and meta-GGA Hessian, CCSD/C-PCM, Gaussian charge scheme
   Tiago L. C. Gouveia    : GS-ROHF, GS-ROCIS
   Yang Guo               : DLPNO-NEVPT2, F12-NEVPT2, CIM, IAO-localization
   Andreas Hansen         : Spin unrestricted coupled pair/coupled cluster methods
   Ingolf Harden          : AUTO-CI MPn and infrastructure 
   Benjamin Helmich-Paris : MC-RPA, TRAH-(SCF,CASSCF), AVAS, COSX integrals, SCF dyn. polar.
   Lee Huntington         : MR-EOM, pCC
   Robert Izsak           : Overlap fitted RIJCOSX, COSX-SCS-MP3, EOM
   Riya Kayal             : Wick's Theorem for AUTO-CI, AUTO-CI UHF-CCSDT
   Emily Kempfer          : AUTO-CI, RHF CISDT and CCSDT
   Christian Kollmar      : KDIIS, OOCD, Brueckner-CCSD(T), CCSD density, CASPT2, CASPT2-K, improved NEVPT2
   Axel Koslowski         : Symmetry handling
   Simone Kossmann        : Meta GGA functionals, TD-DFT gradient, OOMP2, (MP2 Hessian; deprecated post 5.0)
   Lucas Lang             : DCDCAS
   Marvin Lechner         : AUTO-CI (C++ implementation), FIC-MRCC
   Spencer Leger          : CASSCF response
   Dagmar Lenk            : GEPOL surface, SMD, ORCA-2-JSON
   Dimitrios Liakos       : Extrapolation schemes; Compound Job, initial MDCI parallelization
   Dimitrios Manganas     : Further ROCIS development; embedding schemes. LFT, Crystal Embedding
   Dimitrios Pantazis     : SARC Basis sets
   Anastasios Papadopoulos: AUTO-CI, single reference methods and gradients
   Taras Petrenko         : pre 6.0 DFT Hessian and TD-DFT gradient, (ASA, deprecated), ECA, 1-Electron XAS/XES, NRVS
   Peter Pinski           : DLPNO-MP2, DLPNO-MP2 Gradient
   Christoph Reimann      : Effective Core Potentials
   Marius Retegan         : Local ZFS, SOC
   Christoph Riplinger    : Optimizer, TS searches, QM/MM, DLPNO-CCSD(T), (RO)-DLPNO pert. Triples
   Michael Roemelt        : Original ROCIS implementation
   Masaaki Saitow         : Open-shell DLPNO-CCSD energy and density
   Barbara Sandhoefer     : DKH picture change effects
   Kantharuban Sivalingam : CASSCF convergence/infrastructure, NEVPT2 and variants, FIC-MRCI
   Bernardo de Souza      : ESD, SOC TD-DFT
   Georgi Stoychev        : AutoAux, RI-MP2 NMR, DLPNO-MP2 response, X2C
   Van Anh Tran           : RI-MP2 g-tensors
   Willem Van den Heuvel  : Paramagnetic NMR
   Zikuan Wang            : NOTCH, Electric field optimization 
   Frank Wennmohs         : Technical directorship and infrastructure
   Hang Xu                : AUTO-CI-Response properties 


 We gratefully acknowledge several colleagues who have allowed us to
 interface, adapt or use parts of their codes:
   Stefan Grimme, W. Hujo, H. Kruse, P. Pracht,  : VdW corrections, initial TS optimization,
                  C. Bannwarth, S. Ehlert,         DFT functionals, gCP, sTDA/sTD-DF
                  L. Wittmann, M. Mueller
   Ed Valeev, F. Pavosevic, A. Kumar             : LibInt (2-el integral package), F12 methods
   Garnet Chan, S. Sharma, J. Yang, R. Olivares  : DMRG
   Ulf Ekstrom                                   : XCFun DFT Library
   Mihaly Kallay                                 : mrcc  (arbitrary order and MRCC methods)
   Frank Weinhold                                : gennbo (NPA and NBO analysis)
   Simon Mueller                                 : openCOSMO-RS
   Christopher J. Cramer and Donald G. Truhlar   : smd solvation model
   Lars Goerigk                                  : TD-DFT with DH, B97 family of functionals
   V. Asgeirsson, H. Jonsson                     : NEB implementation
   FAccTs GmbH                                   : IRC, NEB, NEB-TS, DLPNO-Multilevel, CI-OPT
                                                   MM, QMMM, 2- and 3-layer-ONIOM, Crystal-QMMM,
                                                   LR-CPCM, SF, NACMEs, symmetry and pop. for TD-DFT,
                                                   nearIR, NL-DFT gradient (VV10), updates on ESD,
                                                   ML-optimized integration grids, MBIS, APM,
                                                   GOAT, DOCKER, SOLVATOR, interface openCOSMO-RS
   S Lehtola, MJT Oliveira, MAL Marques          : LibXC Library
   Liviu Ungur et al                             : ANISO software


 Your calculation uses the libint2 library for the computation of 2-el integrals
 For citations please refer to: http://libint.valeyev.net

 Your ORCA version has been built with support for libXC version: 6.2.2
 For citations please refer to: https://libxc.gitlab.io

 This ORCA versions uses:
   CBLAS   interface :  Fast vector & matrix operations
   LAPACKE interface :  Fast linear algebra routines
   SCALAPACK package :  Parallel linear algebra routines
   Shared memory     :  Shared parallel matrices
   BLAS/LAPACK       :  OpenBLAS 0.3.27  USE64BITINT DYNAMIC_ARCH NO_AFFINITY SkylakeX SINGLE_THREADED
        Core in use  :  SkylakeX
   Copyright (c) 2011-2014, The OpenBLAS Project


Your calculation utilizes the geometrical counterpoise correction gCP
Please cite in your paper:
H.Kruse, S. Grimme J.Chem.Phys., 136, (2012), 154101 
   

Your calculation utilizes the DFT-NL dispersion correction.
Cite in your paper:
Vydrov, O. A.; Van Voorhis, T. J. Chem. Phys. 2010, 133, 244103
Hujo, W.; Grimme, S. J. Chem. Theory Comput. 2011, 7, 3866 
   

Your calculation utilizes the SMD solvation module
Please cite in your paper:
A.V. Marenich, C.J. Cramer, D.G. Truhlar J. Phys. Chem. B, 113, (2009), 6378 

================================================================================

----- Orbital basis set information -----
Your calculation utilizes the basis: def2-TZVP
   F. Weigend and R. Ahlrichs, Phys. Chem. Chem. Phys. 7, 3297 (2005).

----- AuxJ basis set information -----
Your calculation utilizes the auxiliary basis: def2/J
   F. Weigend, Phys. Chem. Chem. Phys. 8, 1057 (2006).

================================================================================
                                        WARNINGS
                       Please study these warnings very carefully!
================================================================================


================================================================================
                                       INPUT FILE
================================================================================
NAME = sp_solv.inp
|  1> ! wb97x-v def2-tzvp def2/J RIJCOSX DEFGRID2 scfconv7 GCP(DFT/TZ) printgap
|  2> %output
|  3>     printlevel normal
|  4> end
|  5> %cpcm
|  6>     smd true
|  7>     smdsolvent "water"
|  8> end
|  9> * xyz 0 1
| 10> C -1.578344825677091 -0.06739563309325809 0.5322894335396791
| 11> C -0.6543678372259006 0.4906454855262895 -0.5489327305689882
| 12> C 0.6805883567529329 -0.23760744560335514 -0.6392628504773502
| 13> N 1.4743331933712822 -0.07904666148846315 0.5962423579084475
| 14> H -1.1593308789003145 0.062345685639413166 1.5358950765085888
| 15> H -2.54864845049277 0.4395938532918528 0.5191121355306689
| 16> H -1.757862844193907 -1.138011140792191 0.37797753021587255
| 17> H -0.4737007698684837 1.5585305459160865 -0.37039087798628206
| 18> H -1.1502419148032559 0.41147092645072947 -1.5241499990247058
| 19> H 0.48912046071834714 -1.2955946234336524 -0.8862222949429788
| 20> H 1.2611132324758154 0.1800101449297666 -1.4693640308523934
| 21> H 2.3439248577244096 -0.5911544722692251 0.4822769580773987
| 22> H 0.9885696702779696 -0.5566706574674468 1.3500204429179719
| 23> *
| 24> 
| 25>                          ****END OF INPUT****
================================================================================

                       ****************************
                       * Single Point Calculation *
                       ****************************

---------------------------------
CARTESIAN COORDINATES (ANGSTROEM)
---------------------------------
  C     -1.578345   -0.067396    0.532289
  C     -0.654368    0.490645   -0.548933
  C      0.680588   -0.237607   -0.639263
  N      1.474333   -0.079047    0.596242
  H     -1.159331    0.062346    1.535895
  H     -2.548648    0.439594    0.519112
  H     -1.757863   -1.138011    0.377978
  H     -0.473701    1.558531   -0.370391
  H     -1.150242    0.411471   -1.524150
  H      0.489120   -1.295595   -0.886222
  H      1.261113    0.180010   -1.469364
  H      2.343925   -0.591154    0.482277
  H      0.988570   -0.556671    1.350020

----------------------------
CARTESIAN COORDINATES (A.U.)
----------------------------
  NO LB      ZA    FRAG     MASS         X           Y           Z
   0 C     6.0000    0    12.011   -2.982639   -0.127359    1.005881
   1 C     6.0000    0    12.011   -1.236576    0.927186   -1.037333
   2 C     6.0000    0    12.011    1.286126   -0.449013   -1.208032
   3 N     7.0000    0    14.007    2.786086   -0.149377    1.126735
   4 H     1.0000    0     1.008   -2.190818    0.117816    2.902421
   5 H     1.0000    0     1.008   -4.816248    0.830712    0.980980
   6 H     1.0000    0     1.008   -3.321879   -2.150529    0.714274
   7 H     1.0000    0     1.008   -0.895165    2.945196   -0.699937
   8 H     1.0000    0     1.008   -2.173642    0.777567   -2.880226
   9 H     1.0000    0     1.008    0.924304   -2.448319   -1.674717
  10 H     1.0000    0     1.008    2.383159    0.340170   -2.776696
  11 H     1.0000    0     1.008    4.429376   -1.117120    0.911371
  12 H     1.0000    0     1.008    1.868126   -1.051955    2.551169

--------------------------------
INTERNAL COORDINATES (ANGSTROEM)
--------------------------------
 C      0   0   0     0.000000000000     0.00000000     0.00000000
 C      1   0   0     1.527803892330     0.00000000     0.00000000
 C      2   1   0     1.523358100416   113.41131103     0.00000000
 N      3   2   1     1.477039440186   111.71607497   296.07800189
 H      1   2   3     1.095276122254   111.95222481    64.02188343
 H      1   2   3     1.094852092667   110.99708951   183.73334809
 H      1   2   3     1.096474554107   110.85847863   303.48576683
 H      2   1   3     1.097677677898   109.86307904   237.36124042
 H      2   1   3     1.096908579742   109.23377239   120.50478338
 H      3   2   1     1.103170789532   108.64209571    60.82753073
 H      3   2   1     1.095664890793   109.08805106   176.82037209
 H      4   3   2     1.015594498279   108.18808367   179.39232681
 H      4   3   2     1.016008013425   108.25129216    66.33663033

---------------------------
INTERNAL COORDINATES (A.U.)
---------------------------
 C      0   0   0     0.000000000000     0.00000000     0.00000000
 C      1   0   0     2.887130942842     0.00000000     0.00000000
 C      2   1   0     2.878729613677   113.41131103     0.00000000
 N      3   2   1     2.791200030952   111.71607497   296.07800189
 H      1   2   3     2.069771912083   111.95222481    64.02188343
 H      1   2   3     2.068970612292   110.99708951   183.73334809
 H      1   2   3     2.072036620076   110.85847863   303.48576683
 H      2   1   3     2.074310194545   109.86307904   237.36124042
 H      2   1   3     2.072856809661   109.23377239   120.50478338
 H      3   2   1     2.084690671157   108.64209571    60.82753073
 H      3   2   1     2.070506578151   109.08805106   176.82037209
 H      4   3   2     1.919195464864   108.18808367   179.39232681
 H      4   3   2     1.919976895242   108.25129216    66.33663033

---------------------
BASIS SET INFORMATION
---------------------
There are 3 groups of distinct atoms

 Group   1 Type C   : 11s6p2d1f contracted to 5s3p2d1f pattern {62111/411/11/1}
 Group   2 Type N   : 11s6p2d1f contracted to 5s3p2d1f pattern {62111/411/11/1}
 Group   3 Type H   : 5s1p contracted to 3s1p pattern {311/1}

Atom   0C    basis set group =>   1
Atom   1C    basis set group =>   1
Atom   2C    basis set group =>   1
Atom   3N    basis set group =>   2
Atom   4H    basis set group =>   3
Atom   5H    basis set group =>   3
Atom   6H    basis set group =>   3
Atom   7H    basis set group =>   3
Atom   8H    basis set group =>   3
Atom   9H    basis set group =>   3
Atom  10H    basis set group =>   3
Atom  11H    basis set group =>   3
Atom  12H    basis set group =>   3
---------------------------------
AUXILIARY/J BASIS SET INFORMATION
---------------------------------
There are 3 groups of distinct atoms

 Group   1 Type C   : 12s5p4d2f1g contracted to 6s4p3d1f1g pattern {711111/2111/211/2/1}
 Group   2 Type N   : 12s5p4d2f1g contracted to 6s4p3d1f1g pattern {711111/2111/211/2/1}
 Group   3 Type H   : 5s2p1d contracted to 3s1p1d pattern {311/2/1}

Atom   0C    basis set group =>   1
Atom   1C    basis set group =>   1
Atom   2C    basis set group =>   1
Atom   3N    basis set group =>   2
Atom   4H    basis set group =>   3
Atom   5H    basis set group =>   3
Atom   6H    basis set group =>   3
Atom   7H    basis set group =>   3
Atom   8H    basis set group =>   3
Atom   9H    basis set group =>   3
Atom  10H    basis set group =>   3
Atom  11H    basis set group =>   3
Atom  12H    basis set group =>   3

Checking for AutoStart:
The File: sp_solv.gbw exists
Trying to determine its content:
     ... Fine, the file contains calculation information
     ... Fine, the calculation information was read
     ... Fine, the file contains a basis set
     ... Fine, the basis set was read
     ... Fine, the file contains a geometry
     ... Fine, the geometry was read
     ... Fine, the file contains a set of orbitals
     ... Fine, the orbitals can be read
     => possible old guess file was deleted
     => GBW file was renamed to GES file
     => GES file is set as startup file
     => Guess is set to MORead
     ... now leaving AutoStart

------------------------------------------------------------------------------
                             ORCA STARTUP CALCULATIONS
                           -- RI-GTO INTEGRALS CHOSEN --
------------------------------------------------------------------------------
------------------------------------------------------------------------------
                   ___                                                        
                  /   \      - P O W E R E D   B Y -                         
                 /     \                                                     
                 |  |  |   _    _      __       _____    __    __             
                 |  |  |  | |  | |    /  \     |  _  \  |  |  /  |          
                  \  \/   | |  | |   /    \    | | | |  |  | /  /          
                 / \  \   | |__| |  /  /\  \   | |_| |  |  |/  /          
                |  |  |   |  __  | /  /__\  \  |    /   |      \           
                |  |  |   | |  | | |   __   |  |    \   |  |\   \          
                \     /   | |  | | |  |  |  |  | |\  \  |  | \   \       
                 \___/    |_|  |_| |__|  |__|  |_| \__\ |__|  \__/        
                                                                              
                      - O R C A' S   B I G   F R I E N D -                    
                                      &                                       
                       - I N T E G R A L  F E E D E R -                       
                                                                              
 v1 FN, 2020, v2 2021, v3 2022-2024                                           
------------------------------------------------------------------------------


----------------------
SHARK INTEGRAL PACKAGE
----------------------

Number of atoms                             ...     13
Number of basis functions                   ...    178
Number of shells                            ...     80
Maximum angular momentum                    ...      3
Integral batch strategy                     ... SHARK/LIBINT Hybrid
RI-J (if used) integral strategy            ... SPLIT-RIJ (Revised 2003 algorithm where possible)
Printlevel                                  ...      1
Contraction scheme used                     ... SEGMENTED contraction
Prescreening option                         ... SCHWARTZ
   Thresh                                   ... 3.000e-11
   Tcut                                     ... 1.000e-12
   Tpresel                                  ... 1.000e-12 
Coulomb Range Separation                    ... NOT USED
Exchange Range Separation                   ... Long Range
   Mu parameter                             ... 3.000e-01
   Scaling (regular/separated)              ... 1.670e-01 8.330e-01
Multipole approximations                    ... NOT USED
Finite Nucleus Model                        ... NOT USED
CABS basis                                  ... NOT available
Auxiliary Coulomb fitting basis             ... AVAILABLE
   # of basis functions in Aux-J            ...    295
   # of shells in Aux-J                     ...    105
   Maximum angular momentum in Aux-J        ...      4
Auxiliary J/K fitting basis                 ... NOT available
Auxiliary Correlation fitting basis         ... NOT available
Auxiliary 'external' fitting basis          ... NOT available

Checking pre-screening integrals            ... done (  0.0 sec) Dimension = 80
Check shell pair data                       ... done (  0.0 sec)
Shell pair information
Shell pair cut-off parameter TPreSel        ...   1.0e-12
Total number of shell pairs                 ...      3240
Shell pairs after pre-screening             ...      3167
Total number of primitive shell pairs       ...      9160
Primitive shell pairs kept                  ...      7359
          la=0 lb=0:   1079 shell pairs
          la=1 lb=0:    972 shell pairs
          la=1 lb=1:    230 shell pairs
          la=2 lb=0:    370 shell pairs
          la=2 lb=1:    168 shell pairs
          la=2 lb=2:     36 shell pairs
          la=3 lb=0:    186 shell pairs
          la=3 lb=1:     84 shell pairs
          la=3 lb=2:     32 shell pairs
          la=3 lb=3:     10 shell pairs

Calculating one electron integrals          ... done (  0.0 sec)
Calculating RI/J V-Matrix + Cholesky decomp.... done (  0.0 sec)
Calculating Nuclear repulsion               ... done (  0.0 sec) ENN=    133.262838771692 Eh

Diagonalization of the overlap matrix:
Smallest eigenvalue                        ... 3.148e-04
Time for diagonalization                   ...    0.003 sec
Threshold for overlap eigenvalues          ... 1.000e-07
Number of eigenvalues below threshold      ... 0
Time for construction of square roots      ...    0.017 sec
Total time needed                          ...    0.031 sec

-------------------
DFT GRID GENERATION
-------------------

General Integration Accuracy     IntAcc      ... 4.388
Radial Grid Type                 RadialGrid  ... OptM3 with GC (2021)
Angular Grid (max. ang.)         AngularGrid ... 4 (Lebedev-302)
Angular grid pruning method      GridPruning ... 4 (adaptive)
Weight generation scheme         WeightScheme... mBecke (2022)
Basis function cutoff            BFCut       ... 1.0000e-11
Integration weight cutoff        WCut        ... 1.0000e-14
Partially contracted basis set               ... off
Rotationally invariant grid construction     ... off
Angular grids for H and He will be reduced by one unit

Total number of grid points                  ...    53209
Total number of batches                      ...      839
Average number of points per batch           ...       63
Average number of grid points per atom       ...     4093

--------------------
COSX GRID GENERATION
--------------------

GRIDX 1
-------
General Integration Accuracy     IntAcc      ... 3.816
Radial Grid Type                 RadialGrid  ... OptM3 with GC (2021)
Angular Grid (max. ang.)         AngularGrid ... 1 (Lebedev-50)
Angular grid pruning method      GridPruning ... 4 (adaptive)
Weight generation scheme         WeightScheme... mBecke (2022)
Basis function cutoff            BFCut       ... 1.0000e-11
Integration weight cutoff        WCut        ... 1.0000e-14
Partially contracted basis set               ... on
Rotationally invariant grid construction     ... off
Angular grids for H and He will be reduced by one unit

Total number of grid points                  ...     6881
Total number of batches                      ...       62
Average number of points per batch           ...      110
Average number of grid points per atom       ...      529
UseSFitting                                  ... on

GRIDX 2
-------
General Integration Accuracy     IntAcc      ... 4.020
Radial Grid Type                 RadialGrid  ... OptM3 with GC (2021)
Angular Grid (max. ang.)         AngularGrid ... 2 (Lebedev-110)
Angular grid pruning method      GridPruning ... 4 (adaptive)
Weight generation scheme         WeightScheme... mBecke (2022)
Basis function cutoff            BFCut       ... 1.0000e-11
Integration weight cutoff        WCut        ... 1.0000e-14
Partially contracted basis set               ... on
Rotationally invariant grid construction     ... off
Angular grids for H and He will be reduced by one unit

Total number of grid points                  ...    14193
Total number of batches                      ...      117
Average number of points per batch           ...      121
Average number of grid points per atom       ...     1092
UseSFitting                                  ... on

GRIDX 3
-------
General Integration Accuracy     IntAcc      ... 4.338
Radial Grid Type                 RadialGrid  ... OptM3 with GC (2021)
Angular Grid (max. ang.)         AngularGrid ... 3 (Lebedev-194)
Angular grid pruning method      GridPruning ... 4 (adaptive)
Weight generation scheme         WeightScheme... mBecke (2022)
Basis function cutoff            BFCut       ... 1.0000e-11
Integration weight cutoff        WCut        ... 1.0000e-14
Partially contracted basis set               ... on
Rotationally invariant grid construction     ... off
Angular grids for H and He will be reduced by one unit

Total number of grid points                  ...    30996
Total number of batches                      ...      247
Average number of points per batch           ...      125
Average number of grid points per atom       ...     2384
UseSFitting                                  ... on
Initializing property integral containers    ... done (  0.0 sec)

SHARK setup successfully completed in   1.2 seconds

Maximum memory used throughout the entire STARTUP-calculation: 25.8 MB
-------------------------------------------------------------------------------
                                 ORCA GUESS
                   Start orbitals & Density for SCF / CASSCF
-------------------------------------------------------------------------------

------------
SCF SETTINGS
------------
Hamiltonian:
 Density Functional     Method          .... DFT(GTOs)
 Exchange Functional    Exchange        .... WB97X-V
 Correlation Functional Correlation     .... WB97X-V
 Gradients option       PostSCFGGA      .... off
 Hybrid DFT is turned on
   Fraction HF Exchange ScalHFX         ....  0.167000
   Scaling of DF-GGA-X  ScalDFX         ....  0.000000
   Scaling of DF-GGA-C  ScalDFC         ....  1.000000
   Scaling of DF-LDA-C  ScalLDAC        ....  1.000000
   Perturbative correction              ....  0.000000
 Long-range corrected/Screened/Range-Separated Hybrid DFT is turned on
   Amount of maximum screened exact exchange              ....  0.833000
   Range separation parameter mu (erf(mu*r12)/r12)        ....  0.300000
   NL short-range parameter             ....  6.000000
   NL long-range parameter              ....  0.010000
 RI-approximation to the Coulomb term is turned on
   Number of AuxJ basis functions       .... 295
   RIJ-COSX (HFX calculated with COS-X)).... on


General Settings:
 Integral files         IntName         .... sp_solv
 Hartree-Fock type      HFTyp           .... RHF
 Total Charge           Charge          ....    0
 Multiplicity           Mult            ....    1
 Number of Electrons    NEL             ....   34
 Basis Dimension        Dim             ....  178
 Nuclear Repulsion      ENuc            ....    133.2628387717 Eh

Convergence Acceleration:
 AO-DIIS                CNVDIIS         .... on
   Start iteration      DIISMaxIt       ....    12
   Startup error        DIISStart       ....  0.200000
   # of expansion vecs  DIISMaxEq       ....     5
   Bias factor          DIISBfac        ....   1.050
   Max. coefficient     DIISMaxC        ....  10.000
 MO-DIIS                CNVKDIIS        .... off
 Trust-Rad. Augm. Hess. CNVTRAH         .... auto
   Auto Start mean grad. ratio tolernc. ....  1.125000
   Auto Start start iteration           ....     1
   Auto Start num. interpolation iter.  ....    10
   Max. Number of Micro iterations      ....    24
   Max. Number of Macro iterations      .... Maxiter - #DIIS iter
   Number of Davidson start vectors     ....     2
   Converg. threshold    (grad. norm)   ....   1.000e-04
   Grad. Scal. Fac. for Micro threshold ....   0.100
   Minimum threshold for Micro iter.    ....   1.000e-02
   NR start threshold (gradient norm)   ....   1.000e-04
   Initial trust radius                 ....   0.400
   Minimum AH scaling param. (alpha)    ....   1.000
   Maximum AH scaling param. (alpha)    .... 1000.000
   Quad. conv. algorithm                .... NR
   White noise on init. David. guess    .... on
   Maximum white noise                  ....   0.010
   Pseudo random numbers                .... off
   Inactive MOs                         .... canonical
   Orbital update algorithm             .... Taylor
   Preconditioner                       .... Diag
   Full preconditioner red. dimension   ....   250
 SOSCF                  CNVSOSCF        .... on
   Start iteration      SOSCFMaxIt      ....   150
   Startup grad/error   SOSCFStart      ....  0.003300
   Hessian update       SOSCFHessUp     .... L-BFGS
 Level Shifting         CNVShift        .... on
   Level shift para.    LevelShift      ....    0.2500
   Turn off err/grad.   ShiftErr        ....    0.0010
 Zerner damping         CNVZerner       .... off
 Static damping         CNVDamp         .... on
   Fraction old density DampFac         ....    0.7000
   Max. Damping (<1)    DampMax         ....    0.9800
   Min. Damping (>=0)   DampMin         ....    0.0000
   Turn off err/grad.   DampErr         ....    0.1000

SCF Procedure:
 Maximum # iterations   MaxIter         ....   125
 SCF integral mode      SCFMode         .... Direct
   Integral package                     .... SHARK and LIBINT hybrid scheme
 Reset frequency        DirectResetFreq ....    20
 Integral Threshold     Thresh          ....  3.000e-11 Eh
 Primitive CutOff       TCut            ....  1.000e-12 Eh

Convergence Tolerance:
 Convergence Check Mode ConvCheckMode   .... Total+1el-Energy
 Convergence forced     ConvForced      .... 0
 Energy Change          TolE            ....  1.000e-07 Eh
 1-El. energy change                    ....  1.000e-04 Eh
 Orbital Gradient       TolG            ....  1.000e-04
 Orbital Rotation angle TolX            ....  1.000e-04
 DIIS Error             TolErr          ....  1.000e-07

---------------------
INITIAL GUESS: MOREAD
---------------------
Guess MOs are being read from file: sp_solv.ges
Input Geometry matches current geometry (good)
Atom 0: N(Shells)= 11 and 9 - projection required
Input basis set needs projection
NBasis(read)= 126
NBasis(calc)= 178
Basis set overlap was calculated
Using GuessMode=FMatrix for the initial guess
C*T matrix was formed
Effective Fockian was calculated
Effective Fockian was diagonalized
Initial density was built
                      ------------------
                      INITIAL GUESS DONE (   0.0 sec)
                      ------------------
             **** ENERGY FILE WAS UPDATED (sp_solv.en.tmp) ****
Finished Guess after   0.3 sec
Maximum memory used throughout the entire GUESS-calculation: 14.0 MB

-------------------------------------------------------------------------------------------
                                      ORCA LEAN-SCF
                              memory conserving SCF solver
-------------------------------------------------------------------------------------------

--------------------
CPCM SOLVATION MODEL
--------------------
CPCM parameters:
  Epsilon                                         ...      78.3550
  Refrac                                          ...       1.3328
  Rsolv                                           ...       1.3000
  Surface type                                    ... GAUSSIAN VDW
  Discretization scheme                           ... Constant charge density
    Threshold for H atoms                         ...       5.0000 (charges/Ang^2)
    Threshold for non-H atoms                     ...       5.0000 (charges/Ang^2)
  Epsilon function type                           ...         CPCM
Solvent:                                          ... WATER
SMD-CDS solvent descriptors:
  Soln                                            ...       1.3328
  Soln25                                          ...       1.3323
  Sola                                            ...       0.0000
  Solb                                            ...       0.0000
  Solg                                            ...       0.0000
  Solc                                            ...       0.0000
  Solh                                            ...       0.0000
Radii:
  Scheme                                          ... Element-dependent radii
  Radius for C  used is    3.4960 Bohr (=   1.8500 Ang.)
  Radius for N  used is    3.5716 Bohr (=   1.8900 Ang.)
  Radius for H  used is    2.2677 Bohr (=   1.2000 Ang.)
Calculating surface                               ...        done! (  0.0s)
Cavity surface points                             ...          982
Cavity Volume                                     ...     556.4823
Cavity Surface-area                               ...     383.2990
Calculating surface distance matrix               ...        done! (  0.0s)
Performing Cholesky decomposition & store         ...        done! (  0.0s)
Overall time for CPCM initialization              ...                 0.0s

----------------------------------------D-I-I-S--------------------------------------------
Iteration    Energy (Eh)           Delta-E    RMSDP     MaxDP     DIISErr   Damp  Time(sec)
-------------------------------------------------------------------------------------------
               ***  Starting incremental Fock matrix formation  ***
    1    -174.6308922685693119     0.00e+00  1.07e-03  3.30e-02  4.06e-02  0.700   5.3
    2    -174.6330913420673028    -2.20e-03  9.47e-04  3.12e-02  2.84e-02  0.700   3.3
                               ***Turning on AO-DIIS***
    3    -174.6347685289330798    -1.68e-03  8.07e-04  2.75e-02  1.99e-02  0.700   3.6
    4    -174.6360106488556312    -1.24e-03  2.05e-03  7.08e-02  1.38e-02  0.000   3.6
                              *** Initializing SOSCF ***
---------------------------------------S-O-S-C-F--------------------------------------
Iteration    Energy (Eh)           Delta-E    RMSDP     MaxDP     MaxGrad    Time(sec)
--------------------------------------------------------------------------------------
    5    -174.6392049655859751    -3.19e-03  1.10e-04  3.79e-03  7.72e-04     3.5
               *** Restarting incremental Fock matrix formation ***
    6    -174.6392169321900951    -1.20e-05  5.06e-05  1.44e-03  1.83e-04     5.3
    7    -174.6392183923201173    -1.46e-06  3.02e-05  7.72e-04  8.73e-05     4.3
    8    -174.6392185951641522    -2.03e-07  7.51e-06  2.37e-04  4.35e-05     4.3
    9    -174.6392186564767712    -6.13e-08  1.80e-06  4.62e-05  5.47e-06     4.1
                 **** Energy Check signals convergence ****

               *****************************************************
               *                     SUCCESS                       *
               *           SCF CONVERGED AFTER   9 CYCLES          *
               *****************************************************


------------------
NL GRID GENERATION
------------------

General Integration Accuracy     IntAcc      ... 4.004
Radial Grid Type                 RadialGrid  ... OptM3 with GC (2021)
Angular Grid (max. ang.)         AngularGrid ... 2 (Lebedev-110)
Angular grid pruning method      GridPruning ... 4 (adaptive)
Weight generation scheme         WeightScheme... mBecke (2022)
Basis function cutoff            BFCut       ... 1.0000e-10
Integration weight cutoff        WCut        ... 1.0000e-14
Partially contracted basis set               ... off
Rotationally invariant grid construction     ... off
Angular grids for H and He will be reduced by one unit

Total number of grid points                  ...    15586
Total number of batches                      ...      251
Average number of points per batch           ...       62
Average number of grid points per atom       ...     1199
Final grid set up in    0.1 sec

-------------------------------------------------------------------------------
                    post-SCF DFT-NL dispersion correction                      
-------------------------------------------------------------------------------

SCF Energy:     -174.639218656 
NL    Energy:      0.132007601 
SC+NL Energy:   -174.507211056 
NL done in  :              0.9 sec
-------------------------------------------------------------------------------
Recomputing exchange energy using gridx3       ... done (    8.647 sec)
Old exchange energy                            :     -8.649043275 Eh
New exchange energy                            :     -8.649048604 Eh
Exchange energy change after final integration :     -0.000005329 Eh
Total energy after final integration           :   -174.507216385 Eh

SMD CDS free energy correction energy :                 1.30594     Kcal/mol
Total Energy after SMD CDS correction =              -174.505135243 Eh
             **** ENERGY FILE WAS UPDATED (sp_solv.en.tmp) ****

----------------
TOTAL SCF ENERGY
----------------

Total Energy       :       -174.50513524284062 Eh           -4748.52614 eV

Components:
Nuclear Repulsion  :        133.26283877169169 Eh            3626.26620 eV
Electronic Energy  :       -307.89240562869838 Eh           -8378.17830 eV
One Electron Energy:       -497.79411881939501 Eh          -13545.66662 eV
Two Electron Energy:        189.90171319069665 Eh            5167.48833 eV
CPCM Dielectric    :         -0.00965179947008 Eh              -0.26264 eV
SMD CDS (Gcds)     :          0.00208114172492 Eh               0.05663 eV

Virial components:
Potential Energy   :       -348.20208023260261 Eh           -9475.06031 eV
Kinetic Energy     :        173.69694498976202 Eh            4726.53417 eV
Virial Ratio       :          2.00465287546149

DFT components:
N(Alpha)           :       17.000030509303 electrons
N(Beta)            :       17.000030509303 electrons
N(Total)           :       34.000061018606 electrons
E(X)               :      -16.684723557059 Eh       
E(C)               :       -1.348869789679 Eh       
NL Energy, E(C,NL) :        0.132007600693 Eh       
E(XC)              :      -17.901585746045 Eh       

CPCM Solvation Model Properties:
Surface-charge          :         -0.03912309725773
Corrected charge        :         -0.00000000000000
Outlying charge corr.   :          0.00014142619171 Eh               0.00385 eV
Free-energy (cav+disp)  :          0.00208114172492 Eh               0.05663 eV

---------------
SCF CONVERGENCE
---------------

  Last Energy change         ...    6.1313e-08  Tolerance :   1.0000e-07
  Last MAX-Density change    ...    4.6158e-05  Tolerance :   1.0000e-05
  Last RMS-Density change    ...    1.8050e-06  Tolerance :   1.0000e-06
  Last DIIS Error            ...    7.7242e-04  Tolerance :   1.0000e-07
  Last Orbital Gradient      ...    5.4697e-06  Tolerance :   1.0000e-04
  Last Orbital Rotation      ...    9.1848e-06  Tolerance :   1.0000e-04


----------------
ORBITAL ENERGIES
----------------

  NO   OCC          E(Eh)            E(eV) 
   0   2.0000     -16.498030      -448.9342 
   1   2.0000     -12.055641      -328.0507 
   2   2.0000     -12.031231      -327.3864 
   3   2.0000     -12.024945      -327.2154 
   4   2.0000      -1.433460       -39.0064 
   5   2.0000      -1.267447       -34.4890 
   6   2.0000      -1.157839       -31.5064 
   7   2.0000      -1.049124       -28.5481 
   8   2.0000      -0.951997       -25.9052 
   9   2.0000      -0.917645       -24.9704 
  10   2.0000      -0.857597       -23.3364 
  11   2.0000      -0.844143       -22.9703 
  12   2.0000      -0.833817       -22.6893 
  13   2.0000      -0.779475       -21.2106 
  14   2.0000      -0.769271       -20.9329 
  15   2.0000      -0.755999       -20.5718 
  16   2.0000      -0.710143       -19.3240 
  17   0.0000      -0.059304        -1.6137 
  18   0.0000      -0.015309        -0.4166 
  19   0.0000       0.005320         0.1448 
  20   0.0000       0.018207         0.4954 
  21   0.0000       0.021183         0.5764 
  22   0.0000       0.033090         0.9004 
  23   0.0000       0.038098         1.0367 
  24   0.0000       0.069306         1.8859 
  25   0.0000       0.071265         1.9392 
  26   0.0000       0.082773         2.2524 
  27   0.0000       0.094748         2.5782 
*Only the first 10 virtual orbitals were printed.

                    ********************************
                    * MULLIKEN POPULATION ANALYSIS *
                    ********************************

-----------------------
MULLIKEN ATOMIC CHARGES
-----------------------
   0 C :   -0.402043
   1 C :   -0.155623
   2 C :   -0.106184
   3 N :   -0.602989
   4 H :    0.122388
   5 H :    0.129263
   6 H :    0.118140
   7 H :    0.091062
   8 H :    0.103542
   9 H :    0.100126
  10 H :    0.110717
  11 H :    0.245064
  12 H :    0.246536
Sum of atomic charges:    0.0000000

--------------------------------
MULLIKEN REDUCED ORBITAL CHARGES
--------------------------------
  0 C s       :     3.247904  s :     3.247904
      pz      :     1.004702  p :     3.090502
      px      :     1.039726
      py      :     1.046074
      dz2     :     0.023205  d :     0.060251
      dxz     :     0.008030
      dyz     :     0.004151
      dx2y2   :     0.014969
      dxy     :     0.009896
      f0      :     0.000513  f :     0.003387
      f+1     :     0.000982
      f-1     :     0.000295
      f+2     :     0.000454
      f-2     :     0.000297
      f+3     :     0.000201
      f-3     :     0.000644

  1 C s       :     3.165002  s :     3.165002
      pz      :     0.980057  p :     2.884913
      px      :     0.922052
      py      :     0.982803
      dz2     :     0.023479  d :     0.100085
      dxz     :     0.024321
      dyz     :     0.006641
      dx2y2   :     0.030717
      dxy     :     0.014926
      f0      :     0.000805  f :     0.005624
      f+1     :     0.001131
      f-1     :     0.000358
      f+2     :     0.000696
      f-2     :     0.000683
      f+3     :     0.001109
      f-3     :     0.000842

  2 C s       :     3.209521  s :     3.209521
      pz      :     0.868394  p :     2.775243
      px      :     0.907254
      py      :     0.999595
      dz2     :     0.019901  d :     0.113643
      dxz     :     0.031918
      dyz     :     0.020388
      dx2y2   :     0.025456
      dxy     :     0.015981
      f0      :     0.001361  f :     0.007777
      f+1     :     0.001381
      f-1     :     0.000960
      f+2     :     0.000799
      f-2     :     0.001508
      f+3     :     0.000973
      f-3     :     0.000795

  3 N s       :     3.542216  s :     3.542216
      pz      :     1.149527  p :     4.016380
      px      :     1.175718
      py      :     1.691135
      dz2     :     0.009340  d :     0.042220
      dxz     :     0.008569
      dyz     :     0.010342
      dx2y2   :     0.002743
      dxy     :     0.011226
      f0      :     0.000347  f :     0.002174
      f+1     :     0.000467
      f-1     :     0.000275
      f+2     :     0.000316
      f-2     :     0.000260
      f+3     :     0.000069
      f-3     :     0.000440

  4 H s       :     0.856676  s :     0.856676
      pz      :     0.011354  p :     0.020936
      px      :     0.005345
      py      :     0.004238

  5 H s       :     0.849821  s :     0.849821
      pz      :     0.004205  p :     0.020916
      px      :     0.010894
      py      :     0.005817

  6 H s       :     0.861229  s :     0.861229
      pz      :     0.004199  p :     0.020630
      px      :     0.004402
      py      :     0.012029

  7 H s       :     0.888122  s :     0.888122
      pz      :     0.004199  p :     0.020816
      px      :     0.004125
      py      :     0.012492

  8 H s       :     0.875620  s :     0.875620
      pz      :     0.010955  p :     0.020838
      px      :     0.005814
      py      :     0.004068

  9 H s       :     0.879873  s :     0.879873
      pz      :     0.004023  p :     0.020001
      px      :     0.004053
      py      :     0.011926

 10 H s       :     0.868771  s :     0.868771
      pz      :     0.009087  p :     0.020512
      px      :     0.006262
      py      :     0.005163

 11 H s       :     0.719788  s :     0.719788
      pz      :     0.006184  p :     0.035148
      px      :     0.016022
      py      :     0.012942

 12 H s       :     0.717815  s :     0.717815
      pz      :     0.013804  p :     0.035648
      px      :     0.008973
      py      :     0.012872


------------------------
MULLIKEN OVERLAP CHARGES
------------------------
B(  0-C ,  1-C ) :   0.6307 B(  0-C ,  2-C ) :  -0.1052 B(  0-C ,  4-H ) :   0.8221 
B(  0-C ,  5-H ) :   0.8254 B(  0-C ,  6-H ) :   0.8045 B(  0-C ,  7-H ) :  -0.0996 
B(  0-C ,  8-H ) :  -0.0666 B(  1-C ,  2-C ) :   0.6695 B(  1-C ,  3-N ) :  -0.1137 
B(  1-C ,  4-H ) :  -0.0735 B(  1-C ,  5-H ) :  -0.0702 B(  1-C ,  6-H ) :  -0.0784 
B(  1-C ,  7-H ) :   0.8207 B(  1-C ,  8-H ) :   0.8256 B(  1-C ,  9-H ) :  -0.0938 
B(  1-C , 10-H ) :  -0.0647 B(  2-C ,  3-N ) :   0.5544 B(  2-C ,  7-H ) :  -0.0665 
B(  2-C ,  8-H ) :  -0.0841 B(  2-C ,  9-H ) :   0.9005 B(  2-C , 10-H ) :   0.8264 
B(  2-C , 11-H ) :  -0.0733 B(  2-C , 12-H ) :  -0.0799 B(  3-N ,  9-H ) :  -0.1201 
B(  3-N , 10-H ) :  -0.0596 B(  3-N , 11-H ) :   0.7350 B(  3-N , 12-H ) :   0.7483 
B(  4-H ,  6-H ) :  -0.0551 B(  9-H , 10-H ) :  -0.0702 B( 11-H , 12-H ) :  -0.0553 



                     *******************************
                     * LOEWDIN POPULATION ANALYSIS *
                     *******************************

----------------------
LOEWDIN ATOMIC CHARGES
----------------------
   0 C :   -0.318092
   1 C :   -0.304605
   2 C :   -0.338211
   3 N :   -0.209272
   4 H :    0.116295
   5 H :    0.118718
   6 H :    0.118995
   7 H :    0.130148
   8 H :    0.135849
   9 H :    0.115842
  10 H :    0.125936
  11 H :    0.154620
  12 H :    0.153776

-------------------------------
LOEWDIN REDUCED ORBITAL CHARGES
-------------------------------
  0 C s       :     2.829633  s :     2.829633
      pz      :     1.066231  p :     3.198642
      px      :     1.060377
      py      :     1.072033
      dz2     :     0.091664  d :     0.265172
      dxz     :     0.045612
      dyz     :     0.024046
      dx2y2   :     0.061191
      dxy     :     0.042658
      f0      :     0.002926  f :     0.024645
      f+1     :     0.005150
      f-1     :     0.003525
      f+2     :     0.004101
      f-2     :     0.003500
      f+3     :     0.001513
      f-3     :     0.003930

  1 C s       :     2.782562  s :     2.782562
      pz      :     1.027742  p :     3.082164
      px      :     1.026332
      py      :     1.028089
      dz2     :     0.092476  d :     0.401242
      dxz     :     0.100264
      dyz     :     0.031882
      dx2y2   :     0.108197
      dxy     :     0.068422
      f0      :     0.004834  f :     0.038637
      f+1     :     0.006347
      f-1     :     0.003952
      f+2     :     0.005154
      f-2     :     0.005801
      f+3     :     0.007289
      f-3     :     0.005260

  2 C s       :     2.795145  s :     2.795145
      pz      :     0.949298  p :     3.005931
      px      :     1.008224
      py      :     1.048410
      dz2     :     0.087140  d :     0.484829
      dxz     :     0.132164
      dyz     :     0.089535
      dx2y2   :     0.098690
      dxy     :     0.077300
      f0      :     0.008555  f :     0.052306
      f+1     :     0.008358
      f-1     :     0.007699
      f+2     :     0.005364
      f-2     :     0.010963
      f+3     :     0.006608
      f-3     :     0.004758

  3 N s       :     3.094690  s :     3.094690
      pz      :     1.198869  p :     3.969590
      px      :     1.177923
      py      :     1.592798
      dz2     :     0.036967  d :     0.135101
      dxz     :     0.033638
      dyz     :     0.028350
      dx2y2   :     0.010180
      dxy     :     0.025966
      f0      :     0.001800  f :     0.009891
      f+1     :     0.001785
      f-1     :     0.001511
      f+2     :     0.001043
      f-2     :     0.002266
      f+3     :     0.000282
      f-3     :     0.001204

  4 H s       :     0.822664  s :     0.822664
      pz      :     0.030829  p :     0.061042
      px      :     0.016718
      py      :     0.013495

  5 H s       :     0.820658  s :     0.820658
      pz      :     0.013041  p :     0.060624
      px      :     0.029676
      py      :     0.017907

  6 H s       :     0.820611  s :     0.820611
      pz      :     0.013371  p :     0.060393
      px      :     0.013341
      py      :     0.033681

  7 H s       :     0.811958  s :     0.811958
      pz      :     0.013266  p :     0.057893
      px      :     0.012894
      py      :     0.031733

  8 H s       :     0.806305  s :     0.806305
      pz      :     0.028319  p :     0.057846
      px      :     0.016612
      py      :     0.012915

  9 H s       :     0.826662  s :     0.826662
      pz      :     0.012053  p :     0.057496
      px      :     0.012790
      py      :     0.032653

 10 H s       :     0.816575  s :     0.816575
      pz      :     0.023446  p :     0.057490
      px      :     0.017631
      py      :     0.016412

 11 H s       :     0.735840  s :     0.735840
      pz      :     0.020093  p :     0.109540
      px      :     0.046156
      py      :     0.043290

 12 H s       :     0.736045  s :     0.736045
      pz      :     0.039411  p :     0.110179
      px      :     0.028721
      py      :     0.042047


---------------------------------
LOEWDIN BOND ORDERS (THRESH 0.050000)
---------------------------------
B(  0-C ,  1-C ) :   1.2850 B(  0-C ,  2-C ) :   0.1440 B(  0-C ,  4-H ) :   0.9082 
B(  0-C ,  5-H ) :   0.9090 B(  0-C ,  6-H ) :   0.9071 B(  0-C ,  7-H ) :   0.0743 
B(  0-C ,  8-H ) :   0.0757 B(  1-C ,  2-C ) :   1.2489 B(  1-C ,  3-N ) :   0.1240 
B(  1-C ,  4-H ) :   0.0754 B(  1-C ,  5-H ) :   0.0799 B(  1-C ,  6-H ) :   0.0763 
B(  1-C ,  7-H ) :   0.8515 B(  1-C ,  8-H ) :   0.8467 B(  1-C ,  9-H ) :   0.0784 
B(  1-C , 10-H ) :   0.0799 B(  2-C ,  3-N ) :   1.4179 B(  2-C ,  7-H ) :   0.0767 
B(  2-C ,  8-H ) :   0.0822 B(  2-C ,  9-H ) :   0.8728 B(  2-C , 10-H ) :   0.8712 
B(  2-C , 11-H ) :   0.0899 B(  2-C , 12-H ) :   0.0876 B(  3-N ,  9-H ) :   0.0537 
B(  3-N , 10-H ) :   0.0558 B(  3-N , 11-H ) :   0.9592 B(  3-N , 12-H ) :   0.9544 


------------------------------------------
LOEWDIN REDUCED ORBITAL POPULATIONS PER MO
-------------------------------------------
THRESHOLD FOR PRINTING IS 0.1%%
                      0         1         2         3         4         5   
                 -16.49803 -12.05564 -12.03123 -12.02494  -1.43346  -1.26745
                   2.00000   2.00000   2.00000   2.00000   2.00000   2.00000
                  --------  --------  --------  --------  --------  --------
 0 C  s               0.0       0.0       0.9      98.7       0.2      16.8
 0 C  pz              0.0       0.0       0.0       0.0       0.1       2.1
 0 C  px              0.0       0.0       0.0       0.0       0.3       1.6
 0 C  py              0.0       0.0       0.0       0.0       0.0       0.4
 0 C  dxz             0.0       0.0       0.1       0.0       0.0       0.5
 0 C  dyz             0.0       0.0       0.0       0.0       0.0       0.1
 0 C  dxy             0.0       0.0       0.0       0.0       0.0       0.1
 1 C  s               0.0       0.1      98.5       0.9       1.4      26.0
 1 C  pz              0.0       0.0       0.0       0.0       0.1       0.7
 1 C  px              0.0       0.0       0.0       0.0       1.5       0.1
 1 C  py              0.0       0.0       0.0       0.0       0.3       1.0
 1 C  dxz             0.0       0.0       0.0       0.1       0.1       0.5
 1 C  dx2y2           0.0       0.0       0.0       0.0       0.2       0.1
 1 C  dxy             0.0       0.1       0.0       0.0       0.1       0.0
 1 C  f+1             0.0       0.0       0.0       0.0       0.0       0.1
 2 C  s               0.0      99.4       0.1       0.0      11.1       6.7
 2 C  pz              0.0       0.0       0.0       0.0       6.5       0.4
 2 C  px              0.0       0.0       0.0       0.0       2.0       7.1
 2 C  py              0.0       0.0       0.0       0.0       0.1       0.9
 2 C  dz2             0.0       0.0       0.0       0.0       0.7       0.5
 2 C  dxz             0.1       0.0       0.0       0.0       1.5       0.4
 2 C  dx2y2           0.0       0.0       0.0       0.0       0.2       0.2
 2 C  dxy             0.0       0.0       0.1       0.0       0.0       0.4
 2 C  f+1             0.0       0.0       0.0       0.0       0.3       0.0
 3 N  s              99.7       0.0       0.0       0.0      43.6       2.8
 3 N  pz              0.0       0.0       0.0       0.0       0.6       1.3
 3 N  px              0.0       0.0       0.0       0.0       0.3       1.2
 3 N  py              0.0       0.0       0.0       0.0       0.9       0.2
 3 N  dxz             0.0       0.0       0.0       0.0       0.1       0.2
 4 H  s               0.0       0.0       0.0       0.0       0.1       3.0
 4 H  pz              0.0       0.0       0.0       0.0       0.0       0.3
 5 H  s               0.0       0.0       0.0       0.0       0.0       3.2
 5 H  px              0.0       0.0       0.0       0.0       0.0       0.3
 6 H  s               0.0       0.0       0.0       0.0       0.0       3.1
 6 H  py              0.0       0.0       0.0       0.0       0.0       0.3
 7 H  s               0.0       0.0       0.0       0.0       0.2       4.8
 7 H  py              0.0       0.0       0.0       0.0       0.0       0.5
 8 H  s               0.0       0.0       0.0       0.0       0.2       5.1
 8 H  pz              0.0       0.0       0.0       0.0       0.0       0.4
 9 H  s               0.0       0.0       0.0       0.0       1.3       1.3
 9 H  py              0.0       0.0       0.0       0.0       0.1       0.2
10 H  s               0.0       0.0       0.0       0.0       1.4       1.4
10 H  pz              0.0       0.0       0.0       0.0       0.1       0.0
11 H  s               0.0       0.0       0.0       0.0      10.2       1.2
11 H  px              0.0       0.0       0.0       0.0       1.4       0.2
11 H  py              0.0       0.0       0.0       0.0       0.3       0.1
12 H  s               0.0       0.0       0.0       0.0      10.1       1.1
12 H  pz              0.0       0.0       0.0       0.0       1.1       0.1
12 H  px              0.0       0.0       0.0       0.0       0.4       0.1
12 H  py              0.0       0.0       0.0       0.0       0.3       0.0

                      6         7         8         9        10        11   
                  -1.15784  -1.04912  -0.95200  -0.91765  -0.85760  -0.84414
                   2.00000   2.00000   2.00000   2.00000   2.00000   2.00000
                  --------  --------  --------  --------  --------  --------
 0 C  s              18.4       5.9       0.0       0.0       0.2       0.0
 0 C  pz              0.3       4.9       0.4       0.2      15.1       4.4
 0 C  px              0.5       2.3       0.8       0.1       2.9      20.4
 0 C  py              0.0       2.0       0.2       2.4       0.4       1.9
 0 C  dz2             0.0       0.1       0.0       0.0       0.0       0.0
 0 C  dxz             0.1       0.4       0.0       0.0       0.4       0.0
 0 C  dyz             0.0       0.4       0.0       0.1       0.0       0.1
 0 C  dxy             0.0       0.2       0.0       0.1       0.0       0.3
 1 C  s               0.3      10.9       0.2       0.1       0.2       0.2
 1 C  pz              4.5       2.2       1.5       3.5       1.2       8.9
 1 C  px             11.8       0.3       1.6       0.0       9.6      10.5
 1 C  py              0.0       4.1       0.9       8.2       7.0       2.8
 1 C  dz2             0.5       0.0       0.0       0.0       0.0       0.0
 1 C  dxz             0.3       0.5       0.1       0.3       0.4       0.1
 1 C  dyz             0.3       0.1       0.1       0.0       0.3       0.1
 1 C  dx2y2           0.0       0.3       0.0       0.1       0.0       0.3
 1 C  dxy             1.1       0.1       0.1       0.2       0.0       0.1
 2 C  s              15.0       5.7       0.1       0.7       0.2       0.0
 2 C  pz              1.9       0.2       4.8      12.3      11.1       1.0
 2 C  px              0.2       5.5       3.9       6.4       0.3       7.9
 2 C  py              0.1       2.6       0.0      10.6      12.1       1.0
 2 C  dz2             0.1       0.1       1.0       0.1       0.2       0.6
 2 C  dxz             0.0       0.1       0.2       0.2       0.4       0.1
 2 C  dyz             0.0       0.0       0.1       0.2       0.1       0.1
 2 C  dx2y2           0.1       0.1       0.4       0.1       0.2       0.2
 2 C  dxy             0.0       0.9       0.0       0.0       0.0       0.1
 2 C  f0              0.0       0.0       0.2       0.0       0.0       0.2
 3 N  s               1.8       0.6       0.0       0.4       0.2       0.0
 3 N  pz              6.2       9.6       9.1      18.0       8.9       0.0
 3 N  px              2.1       1.1      40.7       3.1       0.3       6.9
 3 N  py              0.3       0.1       0.1       8.1       2.0       0.1
 3 N  dz2             0.1       0.2       0.2       0.1       0.1       0.4
 3 N  dxz             0.4       0.2       0.0       0.3       0.1       0.0
 3 N  dyz             0.0       0.2       0.2       0.0       0.4       0.0
 3 N  dx2y2           0.0       0.0       0.0       0.0       0.0       0.2
 3 N  dxy             0.0       0.0       0.7       0.0       0.0       0.2
 4 H  s               5.6       3.8       0.2       0.1       5.0       4.6
 4 H  pz              0.4       0.2       0.0       0.0       0.0       0.2
 4 H  px              0.1       0.2       0.0       0.0       0.2       0.0
 5 H  s               5.8       3.1       0.2       0.0       1.9      10.0
 5 H  pz              0.0       0.0       0.0       0.0       0.2       0.0
 5 H  px              0.5       0.1       0.0       0.0       0.0       0.2
 5 H  py              0.1       0.1       0.0       0.0       0.0       0.1
 6 H  s               5.3       3.9       0.0       0.9       0.0       0.0
 6 H  pz              0.0       0.1       0.0       0.0       0.2       0.0
 6 H  px              0.0       0.0       0.0       0.0       0.1       0.3
 6 H  py              0.5       0.3       0.0       0.0       0.0       0.0
 7 H  s               0.1       6.9       0.3       3.6       2.9       0.1
 7 H  pz              0.0       0.1       0.0       0.0       0.0       0.1
 7 H  px              0.1       0.0       0.0       0.0       0.1       0.1
 7 H  py              0.0       0.5       0.0       0.2       0.1       0.0
 8 H  s               0.1       6.6       1.2       0.7       0.4       7.1
 8 H  pz              0.0       0.4       0.1       0.0       0.1       0.2
 8 H  px              0.1       0.1       0.0       0.0       0.1       0.0
 9 H  s               4.2       3.5       0.0       9.6       1.9       0.3
 9 H  pz              0.0       0.0       0.0       0.0       0.3       0.0
 9 H  px              0.0       0.1       0.0       0.0       0.0       0.1
 9 H  py              0.4       0.2       0.0       0.5       0.0       0.0
10 H  s               5.0       3.4       2.1       0.5       8.8       1.7
10 H  pz              0.3       0.2       0.1       0.1       0.1       0.0
10 H  px              0.2       0.0       0.0       0.1       0.3       0.0
10 H  py              0.1       0.1       0.0       0.1       0.0       0.1
11 H  s               1.7       0.8      15.8       1.8       0.0       3.2
11 H  pz              0.1       0.2       0.0       0.4       0.2       0.0
11 H  px              0.1       0.0       0.2       0.0       0.0       0.0
11 H  py              0.0       0.0       0.4       0.0       0.0       0.1
12 H  s               2.0       2.1      10.7       4.6       2.0       1.3
12 H  pz              0.0       0.0       0.3       0.0       0.0       0.1
12 H  px              0.2       0.2       0.0       0.4       0.1       0.0
12 H  py              0.0       0.1       0.4       0.0       0.1       0.0

                     12        13        14        15        16        17   
                  -0.83382  -0.77947  -0.76927  -0.75600  -0.71014  -0.05930
                   2.00000   2.00000   2.00000   2.00000   2.00000   0.00000
                  --------  --------  --------  --------  --------  --------
 0 C  s               0.0       0.3       0.0       0.0       0.1       1.5
 0 C  pz              2.1      14.6       0.3       8.7       0.1       0.2
 0 C  px              1.8       3.4      14.7       4.0       0.1       0.4
 0 C  py             23.6       4.4      10.3       7.1       0.7       0.4
 0 C  dz2             0.0       0.0       0.6       3.6       0.0       0.0
 0 C  dxz             0.0       0.2       0.4       0.1       0.0       0.0
 0 C  dyz             0.1       0.0       0.2       0.0       0.0       0.2
 0 C  dx2y2           0.2       0.1       1.9       0.3       0.3       0.3
 0 C  dxy             0.0       0.0       0.9       0.4       0.1       0.0
 0 C  f+1             0.0       0.0       0.0       0.1       0.0       0.0
 0 C  f-1             0.0       0.0       0.1       0.0       0.0       0.0
 1 C  s               0.0       0.1       0.1       0.0       0.2       0.0
 1 C  pz              7.7      12.0       0.3       8.5       0.1       0.6
 1 C  px              0.9       3.6       7.0       4.0       0.3       0.6
 1 C  py              6.9       4.6       4.4       7.6       3.4       0.0
 1 C  dz2             0.0       0.0       0.5       3.3       0.1       0.1
 1 C  dxz             0.4       1.7       0.1       0.4       0.1       4.8
 1 C  dyz             0.2       0.0       0.3       0.0       0.1       0.2
 1 C  dx2y2           0.5       0.9       0.9       0.7       1.4       0.8
 1 C  dxy             0.3       0.2       0.7       0.3       0.0       0.3
 1 C  f+1             0.0       0.0       0.0       0.2       0.0       0.0
 1 C  f-1             0.0       0.0       0.1       0.0       0.0       0.0
 1 C  f+2             0.0       0.0       0.1       0.0       0.0       0.0
 1 C  f-2             0.0       0.1       0.0       0.0       0.0       0.2
 1 C  f+3             0.1       0.0       0.1       0.0       0.1       0.0
 2 C  s               0.1       0.1       0.3       0.0       0.3       4.6
 2 C  pz              0.1       6.4       2.4       0.1       0.2      17.0
 2 C  px              0.7       2.6      13.5       0.0       0.3       5.1
 2 C  py             11.5       2.6       0.3       0.0      10.5       0.1
 2 C  dz2             0.0       0.3       0.4       0.0       0.3       3.4
 2 C  dxz             0.3       2.1       0.3       0.6       0.2       8.2
 2 C  dyz             0.0       0.2       0.3       0.0       3.5       0.3
 2 C  dx2y2           0.8       0.3       0.0       0.5       1.7       0.3
 2 C  dxy             0.1       0.9       0.1       0.3       0.9       0.0
 2 C  f+1             0.0       0.0       0.0       0.0       0.0       1.0
 2 C  f-1             0.0       0.1       0.0       0.0       0.2       0.0
 2 C  f+2             0.0       0.0       0.0       0.0       0.0       0.3
 2 C  f-2             0.1       0.0       0.0       0.1       0.2       0.0
 2 C  f+3             0.1       0.1       0.0       0.1       0.0       0.0
 3 N  s               1.0       0.6       0.2       0.5       3.4      12.5
 3 N  pz              0.0       4.0       0.0       0.2       1.9       8.0
 3 N  px              0.1       0.2       1.5       0.0       1.4       3.8
 3 N  py              9.2       8.2       1.5       5.2      43.8       1.1
 3 N  dz2             0.0       0.2       0.4       0.0       0.0       1.4
 3 N  dxz             0.0       0.1       0.2       0.0       0.0       2.5
 3 N  dyz             0.1       0.1       0.0       0.0       0.5       0.0
 3 N  dx2y2           0.0       0.0       0.1       0.0       0.0       0.8
 3 N  dxy             0.0       0.0       0.0       0.0       0.2       0.0
 3 N  f+1             0.0       0.0       0.0       0.0       0.0       0.4
 4 H  s               2.4       3.3       2.0      11.0       0.0       0.6
 4 H  pz              0.1       0.0       0.1       0.1       0.0       0.2
 4 H  px              0.0       0.2       0.1       0.0       0.0       0.0
 4 H  py              0.2       0.1       0.2       0.0       0.0       0.0
 5 H  s               0.4       0.2      15.7       0.3       0.1       0.4
 5 H  pz              0.0       0.2       0.0       0.1       0.0       0.0
 5 H  px              0.1       0.0       0.2       0.0       0.0       0.2
 5 H  py              0.2       0.1       0.0       0.1       0.0       0.0
 6 H  s              12.5       1.7       4.2       8.4       0.8       0.1
 6 H  pz              0.0       0.3       0.0       0.1       0.0       0.0
 6 H  px              0.0       0.0       0.3       0.0       0.0       0.0
 6 H  py              0.3       0.0       0.0       0.1       0.0       0.0
 7 H  s               4.1       2.7       1.9       9.6       3.4       0.3
 7 H  pz              0.0       0.3       0.0       0.0       0.0       0.0
 7 H  px              0.1       0.0       0.2       0.0       0.0       0.0
 7 H  py              0.1       0.0       0.0       0.2       0.0       0.0
 8 H  s               2.5       3.6       1.7      11.1       0.1       1.5
 8 H  pz              0.0       0.0       0.0       0.1       0.0       0.0
 8 H  px              0.1       0.2       0.0       0.0       0.0       0.4
 8 H  py              0.1       0.1       0.1       0.1       0.0       0.0
 9 H  s               6.1       0.5       0.1       0.1      12.4       0.1
 9 H  pz              0.0       0.2       0.0       0.0       0.0       0.9
 9 H  px              0.1       0.0       0.2       0.0       0.0       0.2
 9 H  py              0.1       0.0       0.0       0.0       0.0       0.0
10 H  s               0.0       9.2       5.1       0.0       2.2       0.1
10 H  pz              0.0       0.1       0.1       0.0       0.1       0.6
10 H  px              0.0       0.0       0.0       0.0       0.0       0.5
10 H  py              0.1       0.0       0.1       0.0       0.1       0.0
11 H  s               0.1       0.4       0.6       0.3       0.7       4.1
11 H  pz              0.0       0.1       0.0       0.0       0.0       0.2
11 H  px              0.0       0.1       0.0       0.0       0.2       1.5
11 H  py              0.1       0.1       0.1       0.1       0.8       0.1
12 H  s               0.3       0.4       0.9       0.1       1.1       4.1
12 H  pz              0.0       0.1       0.0       0.0       0.2       1.7
12 H  py              0.1       0.2       0.0       0.1       0.8       0.1

                     18        19        20        21        22        23   
                  -0.01531   0.00532   0.01821   0.02118   0.03309   0.03810
                   0.00000   0.00000   0.00000   0.00000   0.00000   0.00000
                  --------  --------  --------  --------  --------  --------
 0 C  s               3.4       2.9       9.2       1.6       0.9       1.5
 0 C  pz              1.9       4.5       2.0       4.1       2.2       0.3
 0 C  px              0.7       2.5       1.6       1.7       2.5       3.3
 0 C  py              0.4       3.3       0.0       0.1       4.7       2.5
 0 C  dz2             0.3       0.1       2.1       1.0       0.0       2.4
 0 C  dxz             1.2       6.2       0.0       0.7       1.2       0.0
 0 C  dyz             0.9       0.6       0.2       0.0       0.8       0.2
 0 C  dx2y2           0.1       3.8       0.5       0.1       2.2       0.1
 0 C  dxy             0.9       0.3       0.3       0.0       5.0       0.0
 0 C  f+1             0.0       0.3       0.3       0.0       0.0       0.0
 0 C  f-1             0.0       0.0       0.1       0.0       0.2       0.0
 0 C  f+2             0.0       0.2       0.0       0.0       0.0       0.0
 0 C  f-2             0.0       0.1       0.0       0.0       0.2       0.0
 0 C  f-3             0.0       0.1       0.0       0.0       0.0       0.2
 1 C  s               3.0      11.6       0.0       2.7       3.4       0.1
 1 C  pz              0.1       2.5       1.4       6.4       2.1       1.6
 1 C  px              0.7       1.0       9.6       1.6       1.9       4.8
 1 C  py              0.9       6.0       0.5       0.7       5.4       1.4
 1 C  dz2             0.2       0.3       6.1       0.2       0.1       2.8
 1 C  dxz             0.2       2.4       0.1       3.3       0.2       0.1
 1 C  dyz             0.2       0.9       2.3       0.4       1.2       0.0
 1 C  dx2y2           0.4       4.0       0.0       0.3       3.1       0.5
 1 C  dxy             1.0       1.0       3.6       1.7       1.5       0.4
 1 C  f+1             0.0       0.7       0.1       0.1       0.0       0.1
 1 C  f-1             0.0       0.0       0.1       0.0       0.2       0.0
 1 C  f-2             0.0       0.1       0.0       0.1       0.1       0.0
 1 C  f-3             0.0       0.5       0.1       0.0       0.1       0.2
 2 C  s               8.2       4.8       3.4       0.0       0.3       0.1
 2 C  pz              0.1       0.8       1.9       3.4       0.8       0.0
 2 C  px              0.8       5.2       3.3       3.2       0.6       6.8
 2 C  py              1.4       5.4       0.4       0.7       6.3       2.2
 2 C  dz2             0.0       0.3       0.4       3.6       0.1       1.8
 2 C  dxz             0.0       0.8       0.5       1.8       0.1       0.1
 2 C  dyz             0.0       0.3       0.0       0.3       1.4       0.2
 2 C  dx2y2           0.1       5.8       0.7       0.0       0.7       0.3
 2 C  dxy             1.2       2.7       1.8       1.6       0.1       0.5
 2 C  f+1             0.0       0.4       0.0       0.0       0.0       0.0
 2 C  f-2             0.0       0.0       0.0       0.2       0.0       0.0
 2 C  f-3             0.0       0.3       0.1       0.1       0.0       0.1
 3 N  s               2.5       0.2       0.2       1.4       0.0       1.1
 3 N  pz              7.3       0.4       2.0       3.8       0.0       0.0
 3 N  px              1.0       0.3       2.3       0.4       4.9       9.6
 3 N  py              0.3       0.2       0.4       1.6       0.5       0.9
 3 N  dz2             1.1       0.0       0.1       1.1       0.6       1.6
 3 N  dxz             3.0       1.4       0.0       1.0       0.1       0.1
 3 N  dyz             0.7       0.2       0.2       0.6       0.1       0.2
 3 N  dx2y2           0.0       0.2       0.0       0.2       0.1       0.6
 3 N  dxy             0.2       0.1       0.4       0.2       1.6       0.8
 4 H  s               3.6       0.4       9.5       1.2       0.0       0.4
 4 H  pz              0.6       0.2       3.6       0.2       0.0       0.1
 4 H  px              0.8       0.1       0.1       0.1       0.3       0.1
 4 H  py              0.1       0.1       0.0       0.0       0.1       0.1
 5 H  s               2.7       2.3       2.1       2.5       2.8       2.5
 5 H  pz              0.1       0.5       0.0       0.1       0.1       0.0
 5 H  px              0.5       1.3       0.4       0.5       0.5       0.5
 5 H  py              0.3       0.0       0.1       0.2       0.1       0.5
 6 H  s               2.9       0.5       3.3       2.0       6.4       6.1
 6 H  pz              0.3       0.2       0.0       0.1       0.1       0.0
 6 H  px              0.0       0.1       0.2       0.0       0.6       0.0
 6 H  py              0.7       0.0       1.2       0.7       1.8       2.0
 7 H  s               3.7       0.7       1.4       2.3      10.2       2.4
 7 H  pz              0.1       0.1       0.1       0.5       0.1       0.0
 7 H  px              0.2       0.0       0.5       0.1       0.4       0.1
 7 H  py              0.8       0.4       0.4       0.6       3.3       0.9
 8 H  s               2.8       1.2       2.0       7.8       0.4       3.2
 8 H  pz              0.7       0.6       0.9       1.5       0.3       1.0
 8 H  px              0.1       0.2       0.2       1.1       0.0       0.0
 8 H  py              0.1       0.3       0.0       0.0       0.1       0.0
 9 H  s               7.0       0.5       2.8       0.5       4.0       3.5
 9 H  pz              0.2       0.0       0.0       0.1       0.4       0.1
 9 H  px              0.4       0.3       0.2       0.2       0.1       0.0
 9 H  py              1.9       0.0       1.2       0.1       0.9       1.1
10 H  s               3.9       1.5       2.3       6.6       0.3       2.2
10 H  pz              0.7       0.4       0.2       1.4       0.0       0.7
10 H  px              0.2       1.1       0.4       0.2       0.1       0.0
10 H  py              0.4       0.3       0.1       0.2       0.0       0.0
11 H  s               5.5       0.3       4.2       0.6       6.2      16.6
11 H  pz              0.5       0.2       0.0       0.2       0.0       0.1
11 H  px              1.0       0.0       0.7       0.0       1.1       3.7
11 H  py              0.3       0.0       0.4       0.0       0.7       1.2
12 H  s               8.6       0.1       1.7      12.0       0.5       0.4
12 H  pz              0.8       0.0       0.3       2.5       0.1       0.1
12 H  px              1.7       0.0       0.0       0.6       0.0       0.2
12 H  py              0.6       0.0       0.2       0.7       0.1       0.1

                     24        25        26        27        28        29   
                   0.06931   0.07126   0.08277   0.09475   0.10188   0.19865
                   0.00000   0.00000   0.00000   0.00000   0.00000   0.00000
                  --------  --------  --------  --------  --------  --------
 0 C  s               0.1       0.8       0.7       0.1       1.9       0.5
 0 C  pz              1.5       0.5       1.0       0.2      11.7      14.4
 0 C  px              4.2       6.5       6.6       1.4       0.5      11.4
 0 C  py              1.3       2.6       1.2      13.2       0.5      11.9
 0 C  dz2             3.9       1.7       0.2       2.4       0.5       0.6
 0 C  dxz             0.2       1.0       1.0       0.1       4.6       3.5
 0 C  dyz             2.9       0.0       0.4       2.6       1.3       1.7
 0 C  dx2y2           0.0       0.3       1.4       4.3       0.0       1.0
 0 C  dxy             3.1       0.2       2.9       0.9       0.0       0.7
 0 C  f0              0.0       0.0       0.1       0.0       0.1       0.0
 0 C  f+1             0.0       0.0       0.1       0.1       0.0       0.0
 1 C  s               0.9       0.3       0.2       0.1       0.7       0.0
 1 C  pz              0.9       0.4      10.5       0.7       3.0      12.6
 1 C  px              1.2       2.7       1.0       2.7       2.2       4.3
 1 C  py              5.9       0.8       3.2       0.8       3.3       4.2
 1 C  dz2             0.1       1.1       0.8       2.1       0.0       0.2
 1 C  dxz             0.5       0.1       1.2       0.6       0.4       2.4
 1 C  dyz             3.3       0.0       0.1       0.8       1.8       2.8
 1 C  dx2y2           0.0       0.1       1.1       0.5       0.3       0.1
 1 C  dxy             4.6       0.2       0.0       0.0       0.4       0.8
 1 C  f+1             0.0       0.0       0.0       0.1       0.1       0.0
 1 C  f+2             0.0       0.1       0.0       0.1       0.1       0.1
 1 C  f-2             0.0       0.1       0.0       0.0       0.0       0.1
 1 C  f+3             0.0       0.0       0.1       0.2       0.0       0.0
 2 C  s               0.1       3.3       0.0       0.4       0.4       0.1
 2 C  pz              0.4       8.3       1.8       0.0       2.3       0.2
 2 C  px              5.2       0.7       1.8       0.3       1.0       1.0
 2 C  py              0.9       0.9       1.9       9.9       2.4       3.6
 2 C  dz2             1.1       1.0       1.6       0.1       0.0       0.1
 2 C  dxz             0.3       0.3       0.1       0.0       0.3       1.0
 2 C  dyz             2.0       1.7       0.3       0.4       1.0       0.2
 2 C  dx2y2           0.1       0.3       0.0       3.2       0.0       1.7
 2 C  dxy             1.1       2.3       0.1       1.0       1.6       0.0
 2 C  f0              0.0       0.0       0.2       0.0       0.1       0.0
 2 C  f+1             0.0       0.1       0.0       0.0       0.1       0.0
 3 N  s               0.0       0.3       0.1       0.6       0.8       0.0
 3 N  pz              2.9       0.1       3.0       0.6       2.5       0.1
 3 N  px              1.0       4.0       2.6       0.2       0.3       1.6
 3 N  py              4.0       0.8       0.1       0.5       0.3       0.3
 3 N  dz2             0.2       0.1       0.1       0.1       0.3       0.0
 3 N  dxz             0.4       0.2       0.3       0.1       0.3       0.5
 3 N  dyz             0.3       0.4       0.0       0.4       1.8       0.0
 3 N  dx2y2           0.1       0.2       0.0       0.0       0.1       0.3
 3 N  dxy             1.4       1.4       0.1       0.4       0.1       0.0
 4 H  s               4.9       0.2       2.6       1.4      14.1       1.0
 4 H  pz              1.2       0.0       0.6       0.5       3.5       0.1
 4 H  px              0.0       0.5       0.1       0.0       1.2       0.4
 4 H  py              0.4       0.0       0.0       0.9       0.4       0.2
 5 H  s               5.4       9.0       5.2       6.0       1.1       0.7
 5 H  pz              0.0       0.1       0.2       0.1       0.7       0.2
 5 H  px              0.7       2.3       0.7       2.2       0.3       0.0
 5 H  py              0.5       0.6       1.6       0.0       0.2       0.3
 6 H  s               0.0       0.3       5.0      12.8       1.3       3.0
 6 H  pz              0.4       0.0       0.0       0.1       0.9       0.3
 6 H  px              0.4       0.1       0.3       0.4       0.0       0.2
 6 H  py              0.1       0.0       1.7       3.4       0.4       0.0
[...]
10 H  py              0.0       0.1       0.0       0.1       0.0       0.2
11 H  s               0.4       0.1       0.1       0.3       0.0       0.3
11 H  pz              0.1       0.0       0.0       0.0       0.0       1.1
11 H  px              0.2       1.1       0.3       0.0       0.0       0.1
11 H  py              0.0       0.0       0.5       0.0       0.3       0.0
12 H  s               0.0       0.0       0.2       0.0       0.2       0.2
12 H  pz              0.0       0.1       0.0       0.4       0.6       0.4
12 H  px              0.1       0.6       0.1       0.0       0.0       0.3
12 H  py              0.0       0.0       0.4       0.1       0.2       0.0

                    168       169       170       171       172       173   
                   4.78212   4.81976   4.92697   4.96189   5.29634   5.48178
                   0.00000   0.00000   0.00000   0.00000   0.00000   0.00000
                  --------  --------  --------  --------  --------  --------
 0 C  s               0.4       0.2       0.5       0.0       0.0       0.0
 0 C  pz              0.1       0.1       0.0       0.0       0.0       0.0
 0 C  px              0.2       0.0       0.2       0.0       0.0       0.0
 0 C  py              0.0       0.0       0.1       0.0       0.0       0.0
 0 C  dz2             0.0       0.1       0.1       0.0       0.0       0.0
 0 C  dxz             0.1       0.1       0.1       0.0       0.0       0.0
 0 C  f+1             0.0       0.2       0.0       0.0       0.0       0.0
 0 C  f+2             0.1       0.1       0.0       0.0       0.0       0.0
 1 C  s               0.4       0.4       0.2       1.0       0.1       0.4
 1 C  pz              0.0       0.2       0.0       0.1       0.1       0.0
 1 C  px              0.5       0.0       0.8       1.0       0.0       0.1
 1 C  py              0.0       0.0       0.0       0.4       0.0       0.1
 1 C  dz2             0.1       0.3       0.5       0.2       0.0       0.0
 1 C  dxz             0.6       0.2       0.0       0.0       0.2       0.0
 1 C  dx2y2           0.1       0.1       0.4       0.1       0.0       0.1
 1 C  dxy             0.2       0.2       0.8       0.4       0.0       0.0
 1 C  f0              0.0       0.1       0.1       0.0       0.1       0.0
 1 C  f+1             0.1       0.4       0.4       0.1       0.2       0.2
 1 C  f-1             0.0       0.5       0.0       0.1       0.1       0.0
 1 C  f+2             0.3       0.0       0.0       0.0       0.0       0.0
 1 C  f-2             0.0       0.5       0.0       0.0       0.1       0.0
 1 C  f-3             0.2       0.7       0.0       0.4       0.0       0.1
 2 C  s               0.0       1.0       7.0       1.9       0.0       0.2
 2 C  pz              0.0       0.3       3.7       1.9       0.0       0.7
 2 C  px              1.9       1.0       0.2       2.3       0.3       0.4
 2 C  py              0.1       0.4       0.5       0.0       0.0       0.0
 2 C  dz2             0.7       0.6       1.5       2.0       1.2       0.9
 2 C  dxz             1.0       0.6       4.0       2.7       0.2       2.1
 2 C  dyz             0.6       2.4       0.7       0.1       0.0       0.3
 2 C  dx2y2           0.0       0.8       0.4       0.1       0.3       0.1
 2 C  dxy             1.1       0.6       0.1       0.2       0.0       0.3
 2 C  f0              0.1       0.0       1.0       0.1       2.6       0.1
 2 C  f+1             0.1       4.4       5.4       1.4       0.1       0.1
 2 C  f-1             0.1       2.0       0.9       0.3       0.0       0.2
 2 C  f+2             0.7       1.4       1.1       0.3       0.9       0.0
 2 C  f-2             2.1       2.6       0.2       0.3       0.1       0.7
 2 C  f+3             0.2       0.0       0.2       0.0       0.4       0.0
 2 C  f-3             0.3       0.4       1.0       0.9       0.0       0.0
 3 N  s               0.0       1.1       1.1       1.5       0.1      19.8
 3 N  pz              4.4       2.0       4.9       3.6       2.4       0.0
 3 N  px              2.8       0.3       7.9       1.5       4.7       0.0
 3 N  py              0.6       1.9       1.2       0.0       0.0       2.7
 3 N  dz2            21.6       0.0      10.8      12.8       6.5       0.0
 3 N  dxz            10.3      15.4       7.0      30.7       2.0       0.2
 3 N  dyz            10.6       9.2       5.7       0.5       1.0       0.6
 3 N  dx2y2           7.8       2.1       0.2       1.5       2.0       1.2
 3 N  dxy             1.9       6.6       5.8       0.6       2.9       0.4
 3 N  f0             12.2       0.0       0.1       0.6       9.7       0.0
 3 N  f+1             0.3       0.2       0.9       4.4       0.3      25.6
 3 N  f-1             6.8       9.9       0.0       1.4      20.3       0.1
 3 N  f+2             0.2       1.6       6.4       3.6       2.3       1.8
 3 N  f-2             0.2      17.4       1.0      13.2       6.7      10.2
 3 N  f+3             0.1       0.7       1.2       0.4       2.7       0.0
 3 N  f-3             0.2       4.9       6.2       2.1       8.3      12.5
 7 H  s               0.0       0.4       0.0       0.0       0.0       0.0
 8 H  s               0.0       0.2       0.3       0.0       0.1       0.1
 9 H  s               0.4       0.3       0.5       0.4       0.0       0.0
 9 H  py              0.1       0.0       0.0       0.2       0.0       0.0
10 H  s               0.3       0.6       0.1       0.0       0.1       0.0
10 H  px              0.1       0.1       0.0       0.1       0.0       0.0
11 H  s               0.4       0.2       2.7       0.8       7.6       8.0
11 H  pz              0.2       0.1       0.0       0.2       0.2       0.0
11 H  px              0.9       0.1       1.5       0.0       0.9       0.8
11 H  py              0.1       0.2       0.7       0.0       0.1       0.6
12 H  s               1.7       0.3       0.4       0.9      10.1       6.7
12 H  pz              1.2       0.5       0.3       0.1       0.8       0.7
12 H  px              0.9       0.1       0.1       0.2       0.7       0.1
12 H  py              0.8       0.0       0.2       0.0       0.2       0.6

                    174       175       176       177   
                  20.72717  20.80876  20.87692  29.93316
                   0.00000   0.00000   0.00000   0.00000
                  --------  --------  --------  --------
 0 C  s              94.4       2.8       1.4       0.0
 1 C  s               2.9      13.8      82.0       0.0
 2 C  s               1.2      81.5      15.5       0.1
 3 N  s               0.0       0.1       0.0      99.6
 3 N  pz              0.0       0.2       0.0       0.0
 4 H  s               0.2       0.0       0.0       0.0
 5 H  s               0.2       0.0       0.0       0.0
 6 H  s               0.2       0.0       0.0       0.0
 6 H  py              0.1       0.0       0.0       0.0
 7 H  s               0.0       0.0       0.2       0.0
 8 H  s               0.0       0.1       0.2       0.0
 9 H  s               0.0       0.2       0.0       0.0
10 H  s               0.0       0.2       0.0       0.0


                      *****************************
                      * MAYER POPULATION ANALYSIS *
                      *****************************

  NA   - Mulliken gross atomic population
  ZA   - Total nuclear charge
  QA   - Mulliken gross atomic charge
  VA   - Mayer's total valence
  BVA  - Mayer's bonded valence
  FA   - Mayer's free valence

  ATOM       NA         ZA         QA         VA         BVA        FA
  0 C      6.4020     6.0000    -0.4020     3.9005     3.9005     0.0000
  1 C      6.1556     6.0000    -0.1556     3.8638     3.8638    -0.0000
  2 C      6.1062     6.0000    -0.1062     3.9255     3.9255    -0.0000
  3 N      7.6030     7.0000    -0.6030     2.8490     2.8490     0.0000
  4 H      0.8776     1.0000     0.1224     0.9721     0.9721     0.0000
  5 H      0.8707     1.0000     0.1293     0.9698     0.9698     0.0000
  6 H      0.8819     1.0000     0.1181     0.9707     0.9707     0.0000
  7 H      0.9089     1.0000     0.0911     0.9846     0.9846    -0.0000
  8 H      0.8965     1.0000     0.1035     0.9731     0.9731    -0.0000
  9 H      0.8999     1.0000     0.1001     0.9673     0.9673     0.0000
 10 H      0.8893     1.0000     0.1107     0.9694     0.9694    -0.0000
 11 H      0.7549     1.0000     0.2451     0.9368     0.9368    -0.0000
 12 H      0.7535     1.0000     0.2465     0.9357     0.9357     0.0000

  Mayer bond orders larger than 0.100000
B(  0-C ,  1-C ) :   0.9760 B(  0-C ,  4-H ) :   0.9795 B(  0-C ,  5-H ) :   0.9788 
B(  0-C ,  6-H ) :   0.9737 B(  1-C ,  2-C ) :   0.9842 B(  1-C ,  7-H ) :   0.9735 
B(  1-C ,  8-H ) :   0.9729 B(  2-C ,  3-N ) :   0.9844 B(  2-C ,  9-H ) :   0.9860 
B(  2-C , 10-H ) :   0.9745 B(  3-N , 11-H ) :   0.9318 B(  3-N , 12-H ) :   0.9314 


-------
TIMINGS
-------

Total SCF time: 0 days 0 hours 0 min 47 sec 

Total time                  ....      47.841 sec
Sum of individual times     ....      46.483 sec  ( 97.2%)

SCF preparation             ....       0.669 sec  (  1.4%)
Fock matrix formation       ....      44.846 sec  ( 93.7%)
  Startup                   ....       0.055 sec  (  0.1% of F)
  Split-RI-J                ....       1.504 sec  (  3.4% of F)
  Chain of spheres X        ....      34.386 sec  ( 76.7% of F)
  XC integration            ....       7.115 sec  ( 15.9% of F)
    XC Preparation          ....       0.000 sec  (  0.0% of XC)
    Basis function eval.    ....       1.675 sec  ( 23.5% of XC)
    Density eval.           ....       1.269 sec  ( 17.8% of XC)
    XC-Functional eval.     ....       1.575 sec  ( 22.1% of XC)
    XC-Potential eval.      ....       1.834 sec  ( 25.8% of XC)
  CPCM terms                ....       2.153 sec  (  4.8% of F)
Diagonalization             ....       0.000 sec  (  0.0%)
Density matrix formation    ....       0.192 sec  (  0.4%)
Total Energy calculation    ....       0.065 sec  (  0.1%)
Population analysis         ....       0.096 sec  (  0.2%)
Orbital Transformation      ....       0.058 sec  (  0.1%)
Orbital Orthonormalization  ....       0.000 sec  (  0.0%)
DIIS solution               ....       0.278 sec  (  0.6%)
  MO trafo                  ....       0.000 sec  (  0.0 % of DIIS)
  Orb grad                  ....       0.000 sec  (  0.0 % of DIIS)
  Energy W gradient         ....       0.000 sec  (  0.0 % of DIIS)
  DIIS error                ....       0.004 sec  (  1.4 % of DIIS)
  DIIS work                 ....       0.236 sec  ( 84.8 % of DIIS)
  Form Q                    ....       0.000 sec  (  0.0 % of DIIS)
  Form QpQm                 ....       0.000 sec  (  0.0 % of DIIS)
  Exp/Cayley                ....       0.000 sec  (  0.0 % of DIIS)
  Orb update                ....       0.000 sec  (  0.0 % of DIIS)
  Wake-sleep                ....       0.012 sec  (  4.2 % of DIIS)
SOSCF solution              ....       0.176 sec  (  0.4%)
  MO trafo                  ....       0.063 sec  ( 36.1 % of SOSCF)
  Orb grad                  ....       0.005 sec  (  2.8 % of SOSCF)
  Rot update                ....       0.065 sec  ( 36.8 % of SOSCF)
  Step                      ....       0.043 sec  ( 24.2 % of SOSCF)
Grid generation             ....       0.103 sec  (  0.2%)
Finished LeanSCF after  48.0 sec

Maximum memory used throughout the entire LEANSCF-calculation: 19.9 MB
------------------   -----------------
gCP correction             0.009123250
------------------   -----------------

-------------------------   --------------------
FINAL SINGLE POINT ENERGY      -174.496011992941
-------------------------   --------------------


------------------------------------------------------------------------------
                              ORCA PROPERTY CALCULATIONS
------------------------------------------------------------------------------

GBWName                                 ... sp_solv.gbw
Number of atoms                         ...     13
Number of basis functions               ...    178
Max core memory                         ...   1024 MB

Electric properties:
Dipole moment                           ... YES
Quadrupole moment                       ...  NO
Static polarizability (Dipole/Dipole)   ...  NO
Static polarizability (Dipole/Quad.)    ...  NO
Static polarizability (Quad./Quad.)     ...  NO
Static polarizability (Velocity)        ...  NO

Atomic electric properties:
Dipole moment                           ...  NO
Quadrupole moment                       ...  NO
Static polarizability                   ...  NO

Choice of electric origin               ... Center of mass
Position of electric origin             ...    -0.000470     0.005934     0.015625

General magnetic properties:
Magnetizability                         ...  NO

EPR properties:
g-Tensor (aka g-matrix)                 ...  NO
Zero-Field splitting spin-orbit         ...  NO
Zero-field splitting spin-spin          ...  NO
Hyperfine couplings                     ...  NO (   0 nuclei)
Quadrupole couplings                    ...  NO (   0 nuclei)
Contact density                         ...  NO (   0 nuclei)

NMR properties:
Chemical shifts                         ...  NO (   0 nuclei)
Spin-rotation constants                 ...  NO (   0 nuclei)
Spin-spin couplings                     ...  NO (   0 nuclei,    0 pairs)

Choice of magnetic origin               ... GIAO
Position of magnetic origin             ...     0.000000     0.000000     0.000000

Properties with geometric perturbations:
SCF Hessian                             ...  NO
IR spectrum                             ...  NO
VCD spectrum                            ...  NO
X-ray spectroscopy properties:
SCF XES/XAS/RIXS spectra                ...  NO


-------------
DIPOLE MOMENT
-------------

Method             : SCF
Type of density    : Electron Density
Multiplicity       :   1
Irrep              :   0
Energy             :  -174.5051352428406233 Eh
Relativity type    : 
Basis              : AO
                                X                 Y                 Z
Electronic contribution:      1.763204886       0.169552317      -0.112606429
Nuclear contribution   :     -1.872754424      -0.898983853      -0.052358111
                        -----------------------------------------
Total Dipole Moment    :     -0.109549538      -0.729431536      -0.164964539
                        -----------------------------------------
Magnitude (a.u.)       :      0.755833822
Magnitude (Debye)      :      1.921176897



--------------------
Rotational spectrum 
--------------------
 
Rotational constants in cm-1:             0.462095             0.166259             0.139264 
Rotational constants in MHz :         13853.262081          4984.312800          4175.026767 

Dipole components along the rotational axes: 
x,y,z [a.u.] :    -0.030864     0.008216    -0.755159 
x,y,z [Debye]:    -0.078450     0.020884    -1.919461 

 

Dipole moment calculation done in   0.0 sec 

Maximum memory used throughout the entire PROP-calculation: 11.2 MB

--------------------------------
SUGGESTED CITATIONS FOR THIS RUN
--------------------------------

Below you find a list of papers that are relevant to this ORCA run
We neither can nor want to force you to cite these papers, but we appreciate if you do
You receive ORCA, which is the product of decades of hard work by many enthusiastic individuals, for free
The only thing we kindly ask in return is that you cite our papers,
We deeply appreciate it, if you show your appreciation for ORCA by not just citing the generic ORCA reference.

Please note that relegating all ORCA citations to the supporting information does *not* help us.
SI sections are not indexed - citations you put there will not count into any citation statistics
But we need these citations in order to attract the funding resources that allow us to do what we are doing

Therefore, if you are a happy ORCA user, please consider citing a few of the papers listed below in the main body of your paper

In addition to the list printed below, the program has created the file sp_solv.bibtex that contains the list in bibtex format
You can import this file easily into all common literature databanks and citation aid programs


List of essential papers. We consider these as the minimum necessary citations

  1. Neese,F.
     Software update: the ORCA program system, version 5.0
     WIRES Comput. Molec. Sci., 2022 12(1)e1606
     doi.org/10.1002/wcms.1606

List of papers to cite with high priority. The work reported in these papers was absolutely
necessary for this run to complete.
Our perspective: the developers of density functionals and basis sets usually get cited in chemistry papers
Good! But without the algorithms to do something with them, the functionals or basis sets would not do anything.
Hence, in our opinion, the algorithm design and method developments papers are equally worthy of getting cited

  1. Neese,F.
     An improvement of the resolution of the identity approximation for the formation of the Coulomb matrix
     J. Comp. Chem., 2003 24(14)1740-1747
     doi.org/10.1002/jcc.10318
  2. Neese,F.; Wennmohs,F.; Hansen,A.; Becker,U.
     Efficient, approximate and parallel Hartree-Fock and hybrid DFT calculations. A 'chain-of-spheres' algorithm for the Hartree-Fock exchange
     Chem. Phys., 2009 356(1-3)98-109
     doi.org/10.1016/j.chemphys.2008.10.036
  3. Garcia-Rates,M.; Neese,F.
     Effect of the Solute Cavity on the Solvation Energy and its Derivatives within the Framework of the Gaussian Charge Scheme
     J. Comput. Chem., 2020 41 922-939
     doi.org/10.1002/jcc.26139
  4. Helmich-Paris,B.; de Souza,B.; Neese,F.; Izsák,R.
     An improved chain of spheres for exchange algorithm
     J. Chem. Phys., 2021 155 104109
     doi.org/doi: 10.1063/5.0058766.
  5. Neese,F.
     The SHARK Integral Generation and Digestion System
     J. Comp. Chem., 2022  1-16
     doi.org/10.1002/jcc.26942

List of suggested additional citations. These are papers that are important in the 'surrounding' of 
of this run, or papers that preceded the highly important papers. If you like your results we are grateful for a citation.

  1. Izsak,R.; Neese,F.
     An overlap fitted chain of spheres exchange method
     J. Chem. Phys., 2011 135 144105
     doi.org/10.1063/1.3646921
  2. Izsak,R.; Hansen,A.; Neese,F.
     The resolution of identity and chain of spheres approximations for the LPNO-CCSD singles Fock term
     Molec. Phys., 2012 110 2413-2417
     doi.org/10.1080/00268976.2012.687466
  3. Neese,F.
     The ORCA program system
     WIRES Comput. Molec. Sci., 2012 2(1)73-78
     doi.org/10.1002/wcms.81
  4. Izsak,R.; Neese,F.; Klopper,W.
     Robust fitting techniques in the chain of spheres approximation to the Fock exchange: The role of the complementary space
     J. Chem. Phys., 2013 139 
     doi.org/10.1063/1.4819264
  5. Neese,F.
     Software update: the ORCA program system, version 4.0
     WIRES Comput. Molec. Sci., 2018 8(1)1-6
     doi.org/10.1002/wcms.1327
  6. Neese,F.; Wennmohs,F.; Becker,U.; Riplinger,C.
     The ORCA quantum chemistry program package
     J. Chem. Phys., 2020 152 Art. No. L224108
     doi.org/10.1063/5.0004608

List of optional additional citations

  1. Neese,F.
     Approximate second-order SCF convergence for spin unrestricted wavefunctions
     Chem. Phys. Lett., 2000 325(1-3)93-98
     doi.org/10.1016/s0009-2614(00)00662-x

Timings for individual modules:

Sum of individual times          ...       49.584 sec (=   0.826 min)
Startup calculation              ...        1.200 sec (=   0.020 min)   2.4 %
SCF iterations                   ...       48.273 sec (=   0.805 min)  97.4 %
Property calculations            ...        0.111 sec (=   0.002 min)   0.2 %
                             ****ORCA TERMINATED NORMALLY****
TOTAL RUN TIME: 0 days 0 hours 0 minutes 50 seconds 505 msec
