      -----------------------------------------------------------      
     |                   =====================                   |     
     |                           x T B                           |     
     |                   =====================                   |     
     |                         S. Grimme                         |     
     |          Mulliken Center for Theoretical Chemistry        |     
     |                    University of Bonn                     |     
      -----------------------------------------------------------      

   * xtb version 6.7.1 (edcfbbe) compiled by 'albert@albert-system' on 2024-07-22

   xtb is free software: you can redistribute it and/or modify it under
   the terms of the GNU Lesser General Public License as published by
   the Free Software Foundation, either version 3 of the License, or
   (at your option) any later version.
   
   xtb is distributed in the hope that it will be useful,
   but WITHOUT ANY WARRANTY; without even the implied warranty of
   MERCHANTABILITY or FITNESS FOR A PARTICULAR PURPOSE.  See the
   GNU Lesser General Public License for more details.
   
   Cite this work as:
   * C. Bannwarth, E. Caldeweyher, S. Ehlert, A. Hansen, P. Pracht,
     J. Seibert, S. Spicher, S. Grimme, WIREs Comput. Mol. Sci., 2020, 11,
     e01493. DOI: 10.1002/wcms.1493
   
   for GFN2-xTB:
   * C. Bannwarth, S. Ehlert and S. Grimme., J. Chem. Theory Comput., 2019,
     15, 1652-1671. DOI: 10.1021/acs.jctc.8b01176
   for GFN1-xTB:
   * S. Grimme, C. Bannwarth, P. Shushkov, J. Chem. Theory Comput., 2017,
     13, 1989-2009. DOI: 10.1021/acs.jctc.7b00118
   for GFN0-xTB:
   * P. Pracht, E. Caldeweyher, S. Ehlert, S. Grimme, ChemRxiv, 2019, preprint.
     DOI: 10.26434/chemrxiv.8326202.v1
   for GFN-FF:
   * S. Spicher and S. Grimme, Angew. Chem. Int. Ed., 2020, 59, 15665-15673.
     DOI: 10.1002/anie.202004239
   
   for ALPB and GBSA implicit solvation:
   * S. Ehlert, M. Stahn, S. Spicher, S. Grimme, J. Chem. Theory Comput.,
     2021, 17, 4250-4261. DOI: 10.1021/acs.jctc.1c00471
   
   for ddCOSMO and CPCM-X implicit solvation:
   * M. Stahn, S. Ehlert, S. Grimme, J. Phys. Chem. A,
     2023, XX, XXXX-XXXX. DOI: 10.1021/acs.jpca.3c04382
   
   for DFT-D4:
   * E. Caldeweyher, C. Bannwarth and S. Grimme, J. Chem. Phys., 2017,
     147, 034112. DOI: 10.1063/1.4993215
   * E. Caldeweyher, S. Ehlert, A. Hansen, H. Neugebauer, S. Spicher,
     C. Bannwarth and S. Grimme, J. Chem. Phys., 2019, 150, 154122.
     DOI: 10.1063/1.5090222
   * E. Caldeweyher, J.-M. Mewes, S. Ehlert and S. Grimme, Phys. Chem. Chem. Phys.
     2020, 22, 8499-8512. DOI: 10.1039/D0CP00502A
   
   for sTDA-xTB:
   * S. Grimme and C. Bannwarth, J. Chem. Phys., 2016, 145, 054103.
     DOI: 10.1063/1.4959605
   
   in the mass-spec context:
   * V. Asgeirsson, C. Bauer and S. Grimme, Chem. Sci., 2017, 8, 4879.
     DOI: 10.1039/c7sc00601b
   * J. Koopman and S. Grimme, ACS Omega 2019, 4, 12, 15120-15133.
     DOI: 10.1021/acsomega.9b02011
   
   for metadynamics refer to:
   * S. Grimme, J. Chem. Theory Comput., 2019, 155, 2847-2862
     DOI: 10.1021/acs.jctc.9b00143
   
   for SPH calculations refer to:
   * S. Spicher and S. Grimme, J. Chem. Theory Comput., 2021, 17, 1701-1714
     DOI: 10.1021/acs.jctc.0c01306
   
   for ONIOM refer to:
   * C. Plett, A. Katbashev, S. Ehlert, S. Grimme, M. Bursch,
     Phys. Chem. Chem. Phys., 2023, 25, 17860-17868. DOI: 10.1039/D3CP02178E
   
   for DIPRO refer to:
   * J. Kohn, N. Gildemeister, S. Grimme, D. Fazzi, A. Hansen,
     J. Chem. Phys., 2023, just accepted.
   
   for PTB refer to:
   * S. Grimme, M. Mueller, A. Hansen, J. Chem. Phys., 2023, 158, 124111.
     DOI: 10.1063/5.0137838
   
   with help from (in alphabetical order)
   P. Atkinson, C. Bannwarth, F. Bohle, G. Brandenburg, E. Caldeweyher
   M. Checinski, S. Dohm, S. Ehlert, S. Ehrlich, I. Gerasimov, C. Hölzer
   A. Katbashev, J. Kohn, J. Koopman, C. Lavigne, S. Lehtola, F. März, M. Müller,
   F. Musil, H. Neugebauer, J. Pisarek, C. Plett, P. Pracht, F. Pultar,
   J. Seibert, P. Shushkov, S. Spicher, M. Stahn, M. Steiner, T. Strunk,
   J. Stückrath, T. Rose, and J. Unsleber
   
 * started run on 2025/04/04 at 16:10:14.956     
   ID    Z sym.   atoms
    1    6 C      1-3, 6
    2    8 O      4, 5
    3    1 H      7-14

           -------------------------------------------------
          |                Calculation Setup                |
           -------------------------------------------------

          program call               : /srv/scratch/z5358697/.xtb/bin/xtb xtb_rrho.coord --gfn2 --bhess vtight --chrg 0 --enso --norestart -I rrho-xcontrol-inp --parallel 1 --alpb water
          hostname                   : k157
          coordinate file            : xtb_rrho.coord
          omp threads                :                     1


           -------------------------------------------------
          |                 G F N 2 - x T B                 |
           -------------------------------------------------

        Reference                      10.1021/acs.jctc.8b01176
      * Hamiltonian:
        H0-scaling (s, p, d)           1.850000    2.230000    2.230000
        zeta-weighting                 0.500000
      * Dispersion:
        s8                             2.700000
        a1                             0.520000
        a2                             5.000000
        s9                             5.000000
      * Repulsion:
        kExp                           1.500000    1.000000
        rExp                           1.000000
      * Coulomb:
        alpha                          2.000000
        third order                    shell-resolved
        anisotropic                    true
        a3                             3.000000
        a5                             4.000000
        cn-shift                       1.200000
        cn-exp                         4.000000
        max-rad                        5.000000

      * Solvation model:               ALPB
        Solvent                        water
        Parameter file                 internal GFN2-xTB/ALPB
        Dielectric constant                8.0200E+01
        Reference state                gsolv [1 M gas/solution]
        Free energy shift                  1.0808E-03 Eh       6.7819E-01 kcal/mol
        Temperature                        2.9815E+02 K
        Density                            1.0000E+00 kg/L
        Solvent mass                       1.8000E+01 g/mol
        Interaction kernel             P16
        Born radius scaling (c1)           1.4744E+00
        Born radii integrator          GBOBC
        Born offset                        0.0000E+00 a0       0.0000E+00 AA
        H-bond correction              true
        Ion screening                  false
        Surface tension                    1.0000E-05 Eh       1.5569E+01 dyn/cm
        Grid points                               974 per atom

          ...................................................
          :                      SETUP                      :
          :.................................................:
          :  # basis functions                  32          :
          :  # atomic orbitals                  32          :
          :  # shells                           20          :
          :  # electrons                        36          :
          :  max. iterations                   250          :
          :  Hamiltonian                  GFN2-xTB          :
          :  restarted?                      false          :
          :  GBSA solvation                   true          :
          :  PC potential                    false          :
          :  electronic temp.          300.0000000     K    :
          :  accuracy                    1.0000000          :
          :  -> integral cutoff          0.2500000E+02      :
          :  -> integral neglect         0.1000000E-07      :
          :  -> SCF convergence          0.1000000E-05 Eh   :
          :  -> wf. convergence          0.1000000E-03 e    :
          :  Broyden damping             0.4000000          :
          :  net charge                          0          :
          :  unpaired electrons                  0          :
          ...................................................

 iter      E             dE          RMSdq      gap      omega  full diag
   1    -20.9472429 -0.209472E+02  0.459E+00    5.71       0.0  T
   2    -20.9972764 -0.500335E-01  0.225E+00    4.72       1.0  T
   3    -20.9987851 -0.150876E-02  0.117E+00    5.05       1.0  T
   4    -21.0004600 -0.167492E-02  0.173E-01    4.82       1.0  T
   5    -21.0006198 -0.159758E-03  0.743E-02    4.87       1.0  T
   6    -21.0006213 -0.147007E-05  0.216E-02    4.87       1.2  T
   7    -21.0006217 -0.469188E-06  0.414E-03    4.87       6.5  T
   8    -21.0006218 -0.308752E-07  0.181E-03    4.87      14.8  T
   9    -21.0006218 -0.382183E-08  0.456E-04    4.87      58.6  T
  10    -21.0006218 -0.675104E-09  0.212E-04    4.87     126.2  T

   *** convergence criteria satisfied after 10 iterations ***

         #    Occupation            Energy/Eh            Energy/eV
      -------------------------------------------------------------
         1        2.0000           -0.7474976             -20.3404
       ...           ...                  ...                  ...
        12        2.0000           -0.5022351             -13.6665
        13        2.0000           -0.4762898             -12.9605
        14        2.0000           -0.4751772             -12.9302
        15        2.0000           -0.4639035             -12.6235
        16        2.0000           -0.4535094             -12.3406
        17        2.0000           -0.4449001             -12.1063
        18        2.0000           -0.4238421             -11.5333 (HOMO)
        19                         -0.2449115              -6.6644 (LUMO)
        20                         -0.0134211              -0.3652
        21                          0.1071072               2.9145
        22                          0.1186277               3.2280
        23                          0.1349352               3.6718
       ...                                ...                  ...
        32                          0.5842273              15.8976
      -------------------------------------------------------------
                  HL-Gap            0.1789306 Eh            4.8690 eV
             Fermi-level           -0.3343768 Eh           -9.0989 eV

 SCC (total)                   0 d,  0 h,  0 min,  0.013 sec
 SCC setup                      ...        0 min,  0.001 sec (  6.099%)
 Dispersion                     ...        0 min,  0.000 sec (  0.461%)
 classical contributions        ...        0 min,  0.000 sec (  0.112%)
 integral evaluation            ...        0 min,  0.001 sec (  7.284%)
 iterations                     ...        0 min,  0.008 sec ( 65.023%)
 molecular gradient             ...        0 min,  0.003 sec ( 20.017%)
 printout                       ...        0 min,  0.000 sec (  0.892%)

         :::::::::::::::::::::::::::::::::::::::::::::::::::::
         ::                     SUMMARY                     ::
         :::::::::::::::::::::::::::::::::::::::::::::::::::::
         :: total energy             -20.788335726024 Eh    ::
         :: total w/o Gsasa/hb       -20.788746394227 Eh    ::
         :: gradient norm              0.029136202472 Eh/a0 ::
         :: HOMO-LUMO gap              4.868950776475 eV    ::
         ::.................................................::
         :: SCC energy               -21.000616118181 Eh    ::
         :: -> isotropic ES            0.056949094405 Eh    ::
         :: -> anisotropic ES          0.000629768228 Eh    ::
         :: -> anisotropic XC          0.005197918196 Eh    ::
         :: -> dispersion             -0.006834471731 Eh    ::
         :: -> Gsolv                  -0.008630866897 Eh    ::
         ::    -> Gelec               -0.009041535100 Eh    ::
         ::    -> Gsasa                0.001780636713 Eh    ::
         ::    -> Ghb                 -0.002450728208 Eh    ::
         ::    -> Gshift               0.001080759698 Eh    ::
         :: repulsion energy           0.212280392157 Eh    ::
         :: add. restraining           0.000000000000 Eh    ::
         :: total charge               0.000000000000 e     ::
         :::::::::::::::::::::::::::::::::::::::::::::::::::::

metadynamics with 1 initial structures loaded
           -------------------------------------------------
          |           Optimal kpush determination           |
           -------------------------------------------------
      ----------------------------------------------------------- 
     |                   =====================                   |
     |                        A N C O P T                        |
     |                   =====================                   |
     |               Approximate Normal Coordinate               |
     |                Rational Function Optimizer                |
      ----------------------------------------------------------- 
target rmsd / Å         0.100000
unbiased initial rmsd   0.316458
 
iter. min.        max.        rmsd       kpush
      ----------------------------------------------------------- 
     |                   =====================                   |
     |                        A N C O P T                        |
     |                   =====================                   |
     |               Approximate Normal Coordinate               |
     |                Rational Function Optimizer                |
      ----------------------------------------------------------- 
 1    0.000000    0.636364    0.010551   -0.318182
      ----------------------------------------------------------- 
     |                   =====================                   |
     |                        A N C O P T                        |
     |                   =====================                   |
     |               Approximate Normal Coordinate               |
     |                Rational Function Optimizer                |
      ----------------------------------------------------------- 
 2    0.000000    0.318182    0.013729   -0.159091
      ----------------------------------------------------------- 
     |                   =====================                   |
     |                        A N C O P T                        |
     |                   =====================                   |
     |               Approximate Normal Coordinate               |
     |                Rational Function Optimizer                |
      ----------------------------------------------------------- 
 3    0.000000    0.159091    0.017413   -0.079545
      ----------------------------------------------------------- 
     |                   =====================                   |
     |                        A N C O P T                        |
     |                   =====================                   |
     |               Approximate Normal Coordinate               |
     |                Rational Function Optimizer                |
      ----------------------------------------------------------- 
 4    0.000000    0.079545    0.021104   -0.039773
      ----------------------------------------------------------- 
     |                   =====================                   |
     |                        A N C O P T                        |
     |                   =====================                   |
     |               Approximate Normal Coordinate               |
     |                Rational Function Optimizer                |
      ----------------------------------------------------------- 
 5    0.000000    0.039773    0.024377   -0.019886
      ----------------------------------------------------------- 
     |                   =====================                   |
     |                        A N C O P T                        |
     |                   =====================                   |
     |               Approximate Normal Coordinate               |
     |                Rational Function Optimizer                |
      ----------------------------------------------------------- 
 6    0.000000    0.019886    0.027235   -0.009943
      ----------------------------------------------------------- 
     |                   =====================                   |
     |                        A N C O P T                        |
     |                   =====================                   |
     |               Approximate Normal Coordinate               |
     |                Rational Function Optimizer                |
      ----------------------------------------------------------- 
 7    0.000000    0.009943    0.029706   -0.004972
      ----------------------------------------------------------- 
     |                   =====================                   |
     |                        A N C O P T                        |
     |                   =====================                   |
     |               Approximate Normal Coordinate               |
     |                Rational Function Optimizer                |
      ----------------------------------------------------------- 
 8    0.000000    0.004972    0.031630   -0.002486
      ----------------------------------------------------------- 
     |                   =====================                   |
     |                        A N C O P T                        |
     |                   =====================                   |
     |               Approximate Normal Coordinate               |
     |                Rational Function Optimizer                |
      ----------------------------------------------------------- 
 9    0.000000    0.002486    0.033448   -0.001243
      ----------------------------------------------------------- 
     |                   =====================                   |
     |                        A N C O P T                        |
     |                   =====================                   |
     |               Approximate Normal Coordinate               |
     |                Rational Function Optimizer                |
      ----------------------------------------------------------- 
10    0.000000    0.001243    0.168778   -0.000621
final kpush: -0.000621
           -------------------------------------------------
          |            Biased Numerical Hessian             |
           -------------------------------------------------
kpush                :  -0.00062
alpha                :   1.00000
step length          :   0.00500
SCC accuracy         :   0.30000
Hessian scale factor :   1.00000
frozen atoms in %    :   0.00000    0
RMS gradient         :   0.00010
estimated CPU  time      0.01 min
estimated wall time      0.01 min

writing file <hessian>.

 projected vibrational frequencies (cm⁻¹)
eigval :       -0.00    -0.00    -0.00    -0.00     0.00     0.00
eigval :       24.65    34.49   147.54   202.55   262.46   269.76
eigval :      400.67   605.94   710.74   820.75   875.52   976.98
eigval :     1050.93  1066.01  1079.29  1112.70  1137.06  1189.32
eigval :     1231.90  1291.60  1373.20  1396.95  1424.97  1437.48
eigval :     1448.54  1484.31  1491.99  1700.16  2988.35  2997.24
eigval :     3006.71  3016.43  3040.30  3043.37  3053.90  3055.73
           -------------------------------------------------
          |                Property Printout                |
           -------------------------------------------------

    * Orbital Energies and Occupations

         #    Occupation            Energy/Eh            Energy/eV
      -------------------------------------------------------------
         1        2.0000           -0.7518843             -20.4598
       ...           ...                  ...                  ...
         6        2.0000           -0.6001043             -16.3297
         7        2.0000           -0.5872885             -15.9809
         8        2.0000           -0.5674800             -15.4419
         9        2.0000           -0.5542429             -15.0817
        10        2.0000           -0.5194962             -14.1362
        11        2.0000           -0.5103733             -13.8880
        12        2.0000           -0.5046380             -13.7319
        13        2.0000           -0.4779070             -13.0045
        14        2.0000           -0.4733543             -12.8806
        15        2.0000           -0.4647973             -12.6478
        16        2.0000           -0.4526070             -12.3161
        17        2.0000           -0.4455341             -12.1236
        18        2.0000           -0.4221041             -11.4860 (HOMO)
        19                         -0.2397551              -6.5241 (LUMO)
        20                          0.0054435               0.1481
        21                          0.1152900               3.1372
        22                          0.1299830               3.5370
        23                          0.1403765               3.8198
        24                          0.1527858               4.1575
        25                          0.1667948               4.5387
        26                          0.1836885               4.9984
        27                          0.1980461               5.3891
        28                          0.2030381               5.5249
        29                          0.2526738               6.8756
       ...                                ...                  ...
        32                          0.6147758              16.7289
      -------------------------------------------------------------
                  HL-Gap            0.1823489 Eh            4.9620 eV
             Fermi-level           -0.3309296 Eh           -9.0051 eV

     #   Z          covCN         q      C6AA      α(0)
     1   6 C        3.755    -0.113    22.719     6.796
     2   6 C        3.802    -0.098    22.365     6.733
     3   6 C        2.719     0.365    20.814     7.468
     4   8 O        0.856    -0.486    23.484     6.497
     5   8 O        1.704    -0.265    18.399     5.791
     6   6 C        3.649     0.009    20.751     6.544
     7   1 H        0.925     0.053     2.281     2.362
     8   1 H        0.925     0.051     2.309     2.376
     9   1 H        0.925     0.071     2.075     2.253
    10   1 H        0.925     0.080     1.977     2.199
    11   1 H        0.925     0.080     1.975     2.198
    12   1 H        0.924     0.077     2.011     2.218
    13   1 H        0.924     0.074     2.043     2.235
    14   1 H        0.925     0.102     1.764     2.077

 Mol. C6AA /au·bohr⁶  :       1528.340070
 Mol. C8AA /au·bohr⁸  :      32581.236797
 Mol. α(0) /au        :         57.746980


Wiberg/Mayer (AO) data.
largest (>0.10) Wiberg bond orders for each atom

 ---------------------------------------------------------------------------
     #   Z sym  total        # sym  WBO       # sym  WBO       # sym  WBO
 ---------------------------------------------------------------------------
     1   6 C    3.988 --     2 C    0.989     7 H    0.987     8 H    0.987
                             9 H    0.981
     2   6 C    3.989 --     1 C    0.989     3 C    0.977    11 H    0.971
                            10 H    0.964
     3   6 C    3.903 --     4 O    1.698     5 O    1.165     2 C    0.977
     4   8 O    1.974 --     3 C    1.698     5 O    0.171
     5   8 O    2.319 --     3 C    1.165     6 C    0.939     4 O    0.171
     6   6 C    3.905 --    13 H    0.977    14 H    0.977    12 H    0.975
                             5 O    0.939
     7   1 H    0.997 --     1 C    0.987
     8   1 H    0.997 --     1 C    0.987
     9   1 H    0.994 --     1 C    0.981
    10   1 H    0.994 --     2 C    0.964
    11   1 H    0.994 --     2 C    0.971
    12   1 H    0.994 --     6 C    0.975
    13   1 H    0.994 --     6 C    0.977
    14   1 H    0.990 --     6 C    0.977
 ---------------------------------------------------------------------------

Topologies differ in total number of bonds
Writing topology from bond orders to xtbtopo.mol

molecular dipole:
                 x           y           z       tot (Debye)
 q only:        0.042      -1.000       0.482
   full:        0.068      -1.005       0.467       2.822
molecular quadrupole (traceless):
                xx          xy          yy          xz          yz          zz
 q only:        8.520       0.454      -6.437       1.989       2.533      -2.083
  q+dip:        7.007       0.047      -6.236       1.925       2.910      -0.771
   full:        7.436       0.160      -6.902       1.649       3.304      -0.535

           -------------------------------------------------
          |                Geometry Summary                 |
           -------------------------------------------------

      molecular mass/u    :       88.1052794
   center of mass at/Å    :        0.0016139      -0.0080778      -0.0595731
  moments of inertia/u·Å² :        0.7120167E+02   0.2167185E+03   0.2495649E+03
rotational constants/cm⁻¹ :        0.2367589E+00   0.7778584E-01   0.6754809E-01

 * 12 selected distances

     #   Z          #   Z                                           value/Å
     1   6 C        2   6 C                                       1.5318006 (max)
     3   6 C        4   8 O                                       1.2135219
     3   6 C        5   8 O                                       1.3277933
     5   8 O        6   6 C                                       1.4301305
     1   6 C        7   1 H                                       1.0870526
     1   6 C        8   1 H                                       1.0874411
     1   6 C        9   1 H                                       1.0856696
     2   6 C       10   1 H                                       1.0895858
     2   6 C       11   1 H                                       1.0886523
     6   6 C       12   1 H                                       1.0904470
     6   6 C       13   1 H                                       1.0906592
     6   6 C       14   1 H                                       1.0853916 (min)

 * 3 distinct bonds (by element types)

   Z      Z             #   av. dist./Å        max./Å        min./Å
   1 H    6 C           8     1.0881124     1.0906592     1.0853916
   6 C    6 C           1     1.5318006     1.5318006     1.5318006
   6 C    8 O           3     1.3238152     1.4301305     1.2135219

           -------------------------------------------------
          |               Frequency Printout                |
           -------------------------------------------------
 projected vibrational frequencies (cm⁻¹)
eigval :       -0.00    -0.00    -0.00    -0.00     0.00     0.00
eigval :       24.65    34.49   147.54   202.55   262.46   269.76
eigval :      400.67   605.94   710.74   820.75   875.52   976.98
eigval :     1050.93  1066.01  1079.29  1112.70  1137.06  1189.32
eigval :     1231.90  1291.60  1373.20  1396.95  1424.97  1437.48
eigval :     1448.54  1484.31  1491.99  1700.16  2988.35  2997.24
eigval :     3006.71  3016.43  3040.30  3043.37  3053.90  3055.73
 reduced masses (amu)
   1: 10.34   2: 10.97   3: 11.73   4: 12.20   5: 12.10   6: 12.62   7: 10.09   8:  1.54
   9: 10.29  10:  2.74  11:  9.30  12: 11.21  13: 10.14  14: 11.46  15: 11.39  16:  3.86
  17:  9.76  18:  8.70  19:  7.77  20:  8.56  21:  7.38  22:  3.88  23:  6.32  24:  8.80
  25:  4.96  26:  5.18  27:  2.58  28:  2.93  29:  1.52  30:  2.20  31:  1.59  32:  1.52
  33:  1.60  34: 13.30  35:  1.96  36:  1.38  37:  1.63  38:  1.84  39:  1.96  40:  1.62
  41:  1.60  42:  1.80
 IR intensities (km·mol⁻¹)
   1:  1.35   2:  2.06   3:  1.03   4:  0.30   5:  0.34   6:  1.04   7:  3.30   8:  0.30
   9:  1.87  10:  1.35  11: 17.95  12: 10.13  13: 10.11  14: 13.00  15: 28.92  16:  2.75
  17: 32.44  18: 28.64  19: 12.15  20:105.49  21: 12.38  22:  1.66  23: 34.89  24:269.87
  25:118.82  26: 52.03  27: 17.15  28:  1.94  29: 12.80  30:  6.99  31:  3.24  32:  4.99
  33:  4.66  34:637.48  35: 15.93  36: 17.44  37: 10.55  38:  8.69  39: 57.52  40: 34.17
  41: 28.05  42:  2.82
 Raman intensities (Ä⁴*amu⁻¹)
   1:  0.00   2:  0.00   3:  0.00   4:  0.00   5:  0.00   6:  0.00   7:  0.00   8:  0.00
   9:  0.00  10:  0.00  11:  0.00  12:  0.00  13:  0.00  14:  0.00  15:  0.00  16:  0.00
  17:  0.00  18:  0.00  19:  0.00  20:  0.00  21:  0.00  22:  0.00  23:  0.00  24:  0.00
  25:  0.00  26:  0.00  27:  0.00  28:  0.00  29:  0.00  30:  0.00  31:  0.00  32:  0.00
  33:  0.00  34:  0.00  35:  0.00  36:  0.00  37:  0.00  38:  0.00  39:  0.00  40:  0.00
  41:  0.00  42:  0.00
 output can be read by thermo (or use thermo option).
 writing <g98.out> molden fake output.
 recommended (thermochemical) frequency scaling factor: 1.0
           -------------------------------------------------
          |             Thermodynamic Functions             |
           -------------------------------------------------

Molecule has no symmetry elements
It seems to be the C1 point group
c1  symmetry found (for desy threshold:  0.10E+00) used in thermo

          ...................................................
          :                      SETUP                      :
          :.................................................:
          :  # frequencies                          36      :
          :  # imaginary freq.                       0      :
          :  linear?                             false      :
          :  only rotor calc.                    false      :
          :  symmetry                               c1      :
          :  rotational number                       1      :
          :  scaling factor                  1.0000000      :
          :  rotor cutoff                    0.0000000 cm⁻¹ :
          :  imag. cutoff                 -100.0000000 cm⁻¹ :
          :.................................................:

    mode    ω/cm⁻¹     T·S(HO)/kcal·mol⁻¹    T·S(FR)/kcal·mol⁻¹   T·S(vib)
   ------------------------------------------------------------------------
       1     24.65    -1.85432 (100.00%)    -1.26497 (  0.00%)    -1.85432
       2     34.49    -1.65562 (100.00%)    -1.16578 (  0.00%)    -1.65562
       3    147.54    -0.80612 (100.00%)    -0.73581 (  0.00%)    -0.80612
       4    202.55    -0.62904 (100.00%)    -0.64198 (  0.00%)    -0.62904
       5    262.46    -0.49056 (100.00%)    -0.56525 (  0.00%)    -0.49056
       6    269.76    -0.47636 (100.00%)    -0.55712 (  0.00%)    -0.47636
   ------------------------------------------------------------------------

   temp. (K)  partition function   enthalpy   heat capacity  entropy
                                   cal/mol     cal/K/mol   cal/K/mol   J/K/mol
 298.15  VIB   487.                 3048.601     18.730     22.521
         ROT  0.150E+06              888.752      2.981     26.665
         INT  0.729E+08             3937.353     21.710     49.186
         TR   0.800E+27             1481.254      4.968     39.323
         TOT                        5418.6072    26.6786    88.5083   370.3186

       T/K    H(0)-H(T)+PV         H(T)/Eh          T*S/Eh         G(T)/Eh
   ------------------------------------------------------------------------
    298.15    0.863510E-02    0.123570E+00    0.420531E-01    0.815166E-01
   ------------------------------------------------------------------------

         :::::::::::::::::::::::::::::::::::::::::::::::::::::
         ::                  THERMODYNAMIC                  ::
         :::::::::::::::::::::::::::::::::::::::::::::::::::::
         :: total free energy         -20.708534841337 Eh   ::
         ::.................................................::
         :: total energy              -20.790051476809 Eh   ::
         :: zero point energy           0.114934670690 Eh   ::
         :: G(RRHO) w/o ZPVE           -0.033418035218 Eh   ::
         :: G(RRHO) contrib.            0.081516635473 Eh   ::
         :::::::::::::::::::::::::::::::::::::::::::::::::::::

optimized geometry written to: xtbopt.coord


           -------------------------------------------------
          | TOTAL ENERGY              -20.790051476809 Eh   |
          | TOTAL ENTHALPY            -20.666481705882 Eh   |
          | TOTAL FREE ENERGY         -20.708534841337 Eh   |
          | GRADIENT NORM               0.000095371406 Eh/α |
          | HOMO-LUMO GAP               4.961967330191 eV   |
           -------------------------------------------------

------------------------------------------------------------------------
 * finished run on 2025/04/04 at 16:10:16.580     
------------------------------------------------------------------------
 total:
 * wall-time:     0 d,  0 h,  0 min,  1.624 sec
 *  cpu-time:     0 d,  0 h,  0 min,  1.486 sec
 * ratio c/w:     0.915 speedup
 SCF:
 * wall-time:     0 d,  0 h,  0 min,  0.013 sec
 *  cpu-time:     0 d,  0 h,  0 min,  0.008 sec
 * ratio c/w:     0.664 speedup
 analytical hessian:
 * wall-time:     0 d,  0 h,  0 min,  0.465 sec
 *  cpu-time:     0 d,  0 h,  0 min,  0.457 sec
 * ratio c/w:     0.983 speedup

