
                                 *****************
                                 * O   R   C   A *
                                 *****************

                                            #,                                       
                                            ###                                      
                                            ####                                     
                                            #####                                    
                                            ######                                   
                                           ########,                                 
                                     ,,################,,,,,                         
                               ,,#################################,,                 
                          ,,##########################################,,             
                       ,#########################################, ''#####,          
                    ,#############################################,,   '####,        
                  ,##################################################,,,,####,       
                ,###########''''           ''''###############################       
              ,#####''   ,,,,##########,,,,          '''####'''          '####       
            ,##' ,,,,###########################,,,                        '##       
           ' ,,###''''                  '''############,,,                           
         ,,##''                                '''############,,,,        ,,,,,,###''
      ,#''                                            '''#######################'''  
     '                                                          ''''####''''         
             ,#######,   #######,   ,#######,      ##                                
            ,#'     '#,  ##    ##  ,#'     '#,    #''#        ,####,   ,####,        
            ##       ##  ##   ,#'  ##            #'  '#       #'       #'  '#        
            ##       ##  #######   ##           ,######,      #####,   #    #        
            '#,     ,#'  ##    ##  '#,     ,#' ,#      #,     #,   #   #,  ,#        
             '#######'   ##     ##  '#######'  #'      '#     '####' # '####'        



                #########################################################
                #                        -***-                          #
                #          Department of theory and spectroscopy        #
                #                                                       #
                #                      Frank Neese                      #
                #                                                       #
                #     Directorship, Architecture, Infrastructure        #
                #                    SHARK, DRIVERS                     #
                #        Core code/Algorithms in most modules           #
                #                                                       #
                #        Max Planck Institute fuer Kohlenforschung      #
                #                Kaiser Wilhelm Platz 1                 #
                #                 D-45470 Muelheim/Ruhr                 #
                #                      Germany                          #
                #                                                       #
                #                  All rights reserved                  #
                #                        -***-                          #
                #########################################################


                         Program Version 6.0.0  -   RELEASE  -


 With contributions from (in alphabetic order):
   Daniel Aravena         : Magnetic Suceptibility
   Michael Atanasov       : Ab Initio Ligand Field Theory (pilot matlab implementation)
   Alexander A. Auer      : GIAO ZORA, VPT2 properties, NMR spectrum
   Ute Becker             : All parallelization in ORCA, NUMFREQ, NUMCALC
   Giovanni Bistoni       : ED, misc. LED, open-shell LED, HFLD
   Martin Brehm           : Molecular dynamics
   Dmytro Bykov           : pre 5.0 version of the SCF Hessian
   Marcos Casanova-Páez   : Triplet and SCS-CIS(D). UHF-(DLPNO)-IP/EA/STEOM-CCSD. UHF-CVS-IP/STEOM-CCSD
   Vijay G. Chilkuri      : MRCI spin determinant printing, contributions to CSF-ICE
   Pauline Colinet        : FMM embedding
   Dipayan Datta          : RHF DLPNO-CCSD density
   Achintya Kumar Dutta   : EOM-CC, STEOM-CC
   Nicolas Foglia         : Exact transition moments, OPA infrastructure, MCD improvements
   Dmitry Ganyushin       : Spin-Orbit,Spin-Spin,Magnetic field MRCI
   Miquel Garcia          : C-PCM and meta-GGA Hessian, CCSD/C-PCM, Gaussian charge scheme
   Tiago L. C. Gouveia    : GS-ROHF, GS-ROCIS
   Yang Guo               : DLPNO-NEVPT2, F12-NEVPT2, CIM, IAO-localization
   Andreas Hansen         : Spin unrestricted coupled pair/coupled cluster methods
   Ingolf Harden          : AUTO-CI MPn and infrastructure 
   Benjamin Helmich-Paris : MC-RPA, TRAH-(SCF,CASSCF), AVAS, COSX integrals, SCF dyn. polar.
   Lee Huntington         : MR-EOM, pCC
   Robert Izsak           : Overlap fitted RIJCOSX, COSX-SCS-MP3, EOM
   Riya Kayal             : Wick's Theorem for AUTO-CI, AUTO-CI UHF-CCSDT
   Emily Kempfer          : AUTO-CI, RHF CISDT and CCSDT
   Christian Kollmar      : KDIIS, OOCD, Brueckner-CCSD(T), CCSD density, CASPT2, CASPT2-K, improved NEVPT2
   Axel Koslowski         : Symmetry handling
   Simone Kossmann        : Meta GGA functionals, TD-DFT gradient, OOMP2, (MP2 Hessian; deprecated post 5.0)
   Lucas Lang             : DCDCAS
   Marvin Lechner         : AUTO-CI (C++ implementation), FIC-MRCC
   Spencer Leger          : CASSCF response
   Dagmar Lenk            : GEPOL surface, SMD, ORCA-2-JSON
   Dimitrios Liakos       : Extrapolation schemes; Compound Job, initial MDCI parallelization
   Dimitrios Manganas     : Further ROCIS development; embedding schemes. LFT, Crystal Embedding
   Dimitrios Pantazis     : SARC Basis sets
   Anastasios Papadopoulos: AUTO-CI, single reference methods and gradients
   Taras Petrenko         : pre 6.0 DFT Hessian and TD-DFT gradient, (ASA, deprecated), ECA, 1-Electron XAS/XES, NRVS
   Peter Pinski           : DLPNO-MP2, DLPNO-MP2 Gradient
   Christoph Reimann      : Effective Core Potentials
   Marius Retegan         : Local ZFS, SOC
   Christoph Riplinger    : Optimizer, TS searches, QM/MM, DLPNO-CCSD(T), (RO)-DLPNO pert. Triples
   Michael Roemelt        : Original ROCIS implementation
   Masaaki Saitow         : Open-shell DLPNO-CCSD energy and density
   Barbara Sandhoefer     : DKH picture change effects
   Kantharuban Sivalingam : CASSCF convergence/infrastructure, NEVPT2 and variants, FIC-MRCI
   Bernardo de Souza      : ESD, SOC TD-DFT
   Georgi Stoychev        : AutoAux, RI-MP2 NMR, DLPNO-MP2 response, X2C
   Van Anh Tran           : RI-MP2 g-tensors
   Willem Van den Heuvel  : Paramagnetic NMR
   Zikuan Wang            : NOTCH, Electric field optimization 
   Frank Wennmohs         : Technical directorship and infrastructure
   Hang Xu                : AUTO-CI-Response properties 


 We gratefully acknowledge several colleagues who have allowed us to
 interface, adapt or use parts of their codes:
   Stefan Grimme, W. Hujo, H. Kruse, P. Pracht,  : VdW corrections, initial TS optimization,
                  C. Bannwarth, S. Ehlert,         DFT functionals, gCP, sTDA/sTD-DF
                  L. Wittmann, M. Mueller
   Ed Valeev, F. Pavosevic, A. Kumar             : LibInt (2-el integral package), F12 methods
   Garnet Chan, S. Sharma, J. Yang, R. Olivares  : DMRG
   Ulf Ekstrom                                   : XCFun DFT Library
   Mihaly Kallay                                 : mrcc  (arbitrary order and MRCC methods)
   Frank Weinhold                                : gennbo (NPA and NBO analysis)
   Simon Mueller                                 : openCOSMO-RS
   Christopher J. Cramer and Donald G. Truhlar   : smd solvation model
   Lars Goerigk                                  : TD-DFT with DH, B97 family of functionals
   V. Asgeirsson, H. Jonsson                     : NEB implementation
   FAccTs GmbH                                   : IRC, NEB, NEB-TS, DLPNO-Multilevel, CI-OPT
                                                   MM, QMMM, 2- and 3-layer-ONIOM, Crystal-QMMM,
                                                   LR-CPCM, SF, NACMEs, symmetry and pop. for TD-DFT,
                                                   nearIR, NL-DFT gradient (VV10), updates on ESD,
                                                   ML-optimized integration grids, MBIS, APM,
                                                   GOAT, DOCKER, SOLVATOR, interface openCOSMO-RS
   S Lehtola, MJT Oliveira, MAL Marques          : LibXC Library
   Liviu Ungur et al                             : ANISO software


 Your calculation uses the libint2 library for the computation of 2-el integrals
 For citations please refer to: http://libint.valeyev.net

 Your ORCA version has been built with support for libXC version: 6.2.2
 For citations please refer to: https://libxc.gitlab.io

 This ORCA versions uses:
   CBLAS   interface :  Fast vector & matrix operations
   LAPACKE interface :  Fast linear algebra routines
   SCALAPACK package :  Parallel linear algebra routines
   Shared memory     :  Shared parallel matrices
   BLAS/LAPACK       :  OpenBLAS 0.3.27  USE64BITINT DYNAMIC_ARCH NO_AFFINITY SkylakeX SINGLE_THREADED
        Core in use  :  SkylakeX
   Copyright (c) 2011-2014, The OpenBLAS Project


Your calculation utilizes the geometrical counterpoise correction gCP
Please cite in your paper:
H.Kruse, S. Grimme J.Chem.Phys., 136, (2012), 154101 
   

Your calculation utilizes the atom-pairwise dispersion correction
based on EEQ partial charges (D4)


================================================================================

----- Orbital basis set information -----
Your calculation utilizes the basis: def2-SV(P)
   F. Weigend and R. Ahlrichs, Phys. Chem. Chem. Phys. 7, 3297 (2005).

----- AuxJ basis set information -----
Your calculation utilizes the auxiliary basis: def2/J
   F. Weigend, Phys. Chem. Chem. Phys. 8, 1057 (2006).

================================================================================
                                        WARNINGS
                       Please study these warnings very carefully!
================================================================================


================================================================================
                                       INPUT FILE
================================================================================
NAME = sp.inp
|  1> ! pbe def2-sv(p) def2/J RI DEFGRID1 loosescf d4 GCP(DFT/SV(P)) printgap
|  2> %output
|  3>     printlevel normal
|  4> end
|  5> * xyz 0 1
|  6> C -1.7519708867 -1.0364779432 -0.6809762814
|  7> C -1.0733319301 -0.4734319997 0.5855158353
|  8> H -1.7655016524 -0.5855901361 1.4282285264
|  9> C -0.7120760556 1.0165193761 0.484459745
| 10> H -1.5764527578 1.5616063441 0.0936785627
| 11> C 0.487109849 1.2466123458 -0.4541934189
| 12> H 0.8073889272 2.2923477807 -0.3075014126
| 13> C 1.6595432704 0.3333211445 -0.0380572993
| 14> H 2.4004996718 0.2977907658 -0.8493462686
| 15> C 1.220807095 -1.1238325349 0.1948813624
| 16> H 1.9930172426 -1.5947459762 0.8249054727
| 17> O 0.0568753644 -1.2568217566 0.9657355397
| 18> O 1.1386117403 -1.7508502394 -1.0469897642
| 19> O 2.2428821978 0.7749143202 1.1649419347
| 20> O 0.0677726077 1.0476711457 -1.7774982127
| 21> O -0.4613219063 1.5675631767 1.753685222
| 22> O -2.9680427044 -0.3898830783 -0.9736674573
| 23> H -1.9996695947 -2.0833316753 -0.4845688712
| 24> H -1.0636248364 -0.9805771241 -1.5268062266
| 25> H 0.9888169635 -2.7004924127 -0.9286552445
| 26> H 2.7159176677 1.6074282035 1.0184773001
| 27> H 0.7942041108 1.2334388231 -2.3894983302
| 28> H 0.2977717801 1.1059687296 2.1479403868
| 29> H -2.7862337042 0.4081013003 -1.4872484961
| 30> *
| 31> 
| 32>                          ****END OF INPUT****
================================================================================

                       ****************************
                       * Single Point Calculation *
                       ****************************

---------------------------------
CARTESIAN COORDINATES (ANGSTROEM)
---------------------------------
  C     -1.751971   -1.036478   -0.680976
  C     -1.073332   -0.473432    0.585516
  H     -1.765502   -0.585590    1.428229
  C     -0.712076    1.016519    0.484460
  H     -1.576453    1.561606    0.093679
  C      0.487110    1.246612   -0.454193
  H      0.807389    2.292348   -0.307501
  C      1.659543    0.333321   -0.038057
  H      2.400500    0.297791   -0.849346
  C      1.220807   -1.123833    0.194881
  H      1.993017   -1.594746    0.824905
  O      0.056875   -1.256822    0.965736
  O      1.138612   -1.750850   -1.046990
  O      2.242882    0.774914    1.164942
  O      0.067773    1.047671   -1.777498
  O     -0.461322    1.567563    1.753685
  O     -2.968043   -0.389883   -0.973667
  H     -1.999670   -2.083332   -0.484569
  H     -1.063625   -0.980577   -1.526806
  H      0.988817   -2.700492   -0.928655
  H      2.715918    1.607428    1.018477
  H      0.794204    1.233439   -2.389498
  H      0.297772    1.105969    2.147940
  H     -2.786234    0.408101   -1.487248

----------------------------
CARTESIAN COORDINATES (A.U.)
----------------------------
  NO LB      ZA    FRAG     MASS         X           Y           Z
   0 C     6.0000    0    12.011   -3.310745   -1.958659   -1.286859
   1 C     6.0000    0    12.011   -2.028303   -0.894657    1.106465
   2 H     1.0000    0     1.008   -3.336315   -1.106605    2.698961
   3 C     6.0000    0    12.011   -1.345629    1.920943    0.915496
   4 H     1.0000    0     1.008   -2.979064    2.951008    0.177027
   5 C     6.0000    0    12.011    0.920504    2.355756   -0.858301
   6 H     1.0000    0     1.008    1.525744    4.331910   -0.581093
   7 C     6.0000    0    12.011    3.136082    0.629886   -0.071918
   8 H     1.0000    0     1.008    4.536287    0.562743   -1.605032
   9 C     6.0000    0    12.011    2.306991   -2.123736    0.368272
  10 H     1.0000    0     1.008    3.766257   -3.013633    1.558845
  11 O     8.0000    0    15.999    0.107479   -2.375049    1.824976
  12 O     8.0000    0    15.999    2.151664   -3.308627   -1.978524
  13 O     8.0000    0    15.999    4.238433    1.464376    2.201421
  14 O     8.0000    0    15.999    0.128072    1.979812   -3.358985
  15 O     8.0000    0    15.999   -0.871772    2.962265    3.313985
  16 O     8.0000    0    15.999   -5.608788   -0.736772   -1.839965
  17 H     1.0000    0     1.008   -3.778828   -3.936926   -0.915702
  18 H     1.0000    0     1.008   -2.009960   -1.853022   -2.885246
  19 H     1.0000    0     1.008    1.868593   -5.103191   -1.754904
  20 H     1.0000    0     1.008    5.132341    3.037599    1.924643
  21 H     1.0000    0     1.008    1.500828    2.330862   -4.515497
  22 H     1.0000    0     1.008    0.562707    2.089978    4.059019
  23 H     1.0000    0     1.008   -5.265219    0.771200   -2.810492

--------------------------------
INTERNAL COORDINATES (ANGSTROEM)
--------------------------------
 C      0   0   0     0.000000000000     0.00000000     0.00000000
 C      1   0   0     1.543234865330     0.00000000     0.00000000
 H      2   1   0     1.096286026441   108.41363275     0.00000000
 C      2   1   3     1.536448255717   113.77993474   240.64812850
 H      4   2   1     1.094064357535   108.71586510    47.26391489
 C      4   2   1     1.540149139076   111.59432027   287.20351832
 H      6   4   2     1.103476249156   106.65154754   191.46864465
 C      6   4   2     1.543330883519   109.80127756   307.92071094
 H      8   6   4     1.099303683381   109.40085776   165.00521267
 C      8   6   4     1.539495598275   112.60741781    47.59483867
 H     10   8   6     1.102269640702   106.92998796   200.50621098
 O     10   8   6     1.402369198623   114.17110245   313.86093424
 O     10   8   6     1.393610839931   107.92870609    81.01536248
 O      8   6   4     1.408011361477   111.07036754   288.12102105
 O      6   4   2     1.402339794890   108.72862598    72.55537845
 O      4   2   1     1.406221968623   111.25776493   163.07850578
 O      1   2   3     1.408042509859   112.51010112    58.38653623
 H      1   2   3     1.093541611983   107.54655997   301.61634397
 H      1   2   3     1.091958553580   109.86506250   182.71737160
 H     13  10   8     0.968639143861   109.95951728   171.92590797
 H     14   8   6     0.968655671980   110.04032041   290.12197867
 H     15   6   4     0.967861819932   110.18303335   176.97588744
 H     16   4   2     0.971972115494   108.61899874    61.65319707
 H     17   1   2     0.966229302215   109.10103071    85.19445755

---------------------------
INTERNAL COORDINATES (A.U.)
---------------------------
 C      0   0   0     0.000000000000     0.00000000     0.00000000
 C      1   0   0     2.916291255793     0.00000000     0.00000000
 H      2   1   0     2.071680354419   108.41363275     0.00000000
 C      2   1   3     2.903466422246   113.77993474   240.64812850
 H      4   2   1     2.067482008626   108.71586510    47.26391489
 C      4   2   1     2.910460078248   111.59432027   287.20351832
 H      6   4   2     2.085267906191   106.65154754   191.46864465
 C      6   4   2     2.916472703874   109.80127756   307.92071094
 H      8   6   4     2.077382899600   109.40085776   165.00521267
 C      8   6   4     2.909225065117   112.60741781    47.59483867
 H     10   8   6     2.082987746662   106.92998796   200.50621098
 O     10   8   6     2.650093724044   114.17110245   313.86093424
 O     10   8   6     2.633542824734   107.92870609    81.01536248
 O      8   6   4     2.660755866642   111.07036754   288.12102105
 O      6   4   2     2.650038159042   108.72862598    72.55537845
 O      4   2   1     2.657374404200   111.25776493   163.07850578
 O      1   2   3     2.660814728552   112.51010112    58.38653623
 H      1   2   3     2.066494162694   107.54655997   301.61634397
 H      1   2   3     2.063502615859   109.86506250   182.71737160
 H     13  10   8     1.830462704493   109.95951728   171.92590797
 H     14   8   6     1.830493938112   110.04032041   290.12197867
 H     15   6   4     1.828993775151   110.18303335   176.97588744
 H     16   4   2     1.836761108091   108.61899874    61.65319707
 H     17   1   2     1.825908763756   109.10103071    85.19445755

---------------------
BASIS SET INFORMATION
---------------------
There are 3 groups of distinct atoms

 Group   1 Type C   : 7s4p1d contracted to 3s2p1d pattern {511/31/1}
 Group   2 Type H   : 4s contracted to 2s pattern {31}
 Group   3 Type O   : 7s4p1d contracted to 3s2p1d pattern {511/31/1}

Atom   0C    basis set group =>   1
Atom   1C    basis set group =>   1
Atom   2H    basis set group =>   2
Atom   3C    basis set group =>   1
Atom   4H    basis set group =>   2
Atom   5C    basis set group =>   1
Atom   6H    basis set group =>   2
Atom   7C    basis set group =>   1
Atom   8H    basis set group =>   2
Atom   9C    basis set group =>   1
Atom  10H    basis set group =>   2
Atom  11O    basis set group =>   3
Atom  12O    basis set group =>   3
Atom  13O    basis set group =>   3
Atom  14O    basis set group =>   3
Atom  15O    basis set group =>   3
Atom  16O    basis set group =>   3
Atom  17H    basis set group =>   2
Atom  18H    basis set group =>   2
Atom  19H    basis set group =>   2
Atom  20H    basis set group =>   2
Atom  21H    basis set group =>   2
Atom  22H    basis set group =>   2
Atom  23H    basis set group =>   2
---------------------------------
AUXILIARY/J BASIS SET INFORMATION
---------------------------------
There are 3 groups of distinct atoms

 Group   1 Type C   : 12s5p4d2f1g contracted to 6s4p3d1f1g pattern {711111/2111/211/2/1}
 Group   2 Type H   : 5s2p1d contracted to 3s1p1d pattern {311/2/1}
 Group   3 Type O   : 12s5p4d2f1g contracted to 6s4p3d1f1g pattern {711111/2111/211/2/1}

Atom   0C    basis set group =>   1
Atom   1C    basis set group =>   1
Atom   2H    basis set group =>   2
Atom   3C    basis set group =>   1
Atom   4H    basis set group =>   2
Atom   5C    basis set group =>   1
Atom   6H    basis set group =>   2
Atom   7C    basis set group =>   1
Atom   8H    basis set group =>   2
Atom   9C    basis set group =>   1
Atom  10H    basis set group =>   2
Atom  11O    basis set group =>   3
Atom  12O    basis set group =>   3
Atom  13O    basis set group =>   3
Atom  14O    basis set group =>   3
Atom  15O    basis set group =>   3
Atom  16O    basis set group =>   3
Atom  17H    basis set group =>   2
Atom  18H    basis set group =>   2
Atom  19H    basis set group =>   2
Atom  20H    basis set group =>   2
Atom  21H    basis set group =>   2
Atom  22H    basis set group =>   2
Atom  23H    basis set group =>   2
------------------------------------------------------------------------------
                             ORCA STARTUP CALCULATIONS
                           -- RI-GTO INTEGRALS CHOSEN --
------------------------------------------------------------------------------
------------------------------------------------------------------------------
                   ___                                                        
                  /   \      - P O W E R E D   B Y -                         
                 /     \                                                     
                 |  |  |   _    _      __       _____    __    __             
                 |  |  |  | |  | |    /  \     |  _  \  |  |  /  |          
                  \  \/   | |  | |   /    \    | | | |  |  | /  /          
                 / \  \   | |__| |  /  /\  \   | |_| |  |  |/  /          
                |  |  |   |  __  | /  /__\  \  |    /   |      \           
                |  |  |   | |  | | |   __   |  |    \   |  |\   \          
                \     /   | |  | | |  |  |  |  | |\  \  |  | \   \       
                 \___/    |_|  |_| |__|  |__|  |_| \__\ |__|  \__/        
                                                                              
                      - O R C A' S   B I G   F R I E N D -                    
                                      &                                       
                       - I N T E G R A L  F E E D E R -                       
                                                                              
 v1 FN, 2020, v2 2021, v3 2022-2024                                           
------------------------------------------------------------------------------


----------------------
SHARK INTEGRAL PACKAGE
----------------------

Number of atoms                             ...     24
Number of basis functions                   ...    192
Number of shells                            ...     96
Maximum angular momentum                    ...      2
Integral batch strategy                     ... SHARK/LIBINT Hybrid
RI-J (if used) integral strategy            ... SPLIT-RIJ (Revised 2003 algorithm where possible)
Printlevel                                  ...      1
Contraction scheme used                     ... SEGMENTED contraction
Prescreening option                         ... SCHWARTZ
   Thresh                                   ... 1.000e-09
   Tcut                                     ... 1.000e-10
   Tpresel                                  ... 1.000e-10 
Coulomb Range Separation                    ... NOT USED
Exchange Range Separation                   ... NOT USED
Multipole approximations                    ... NOT USED
Finite Nucleus Model                        ... NOT USED
CABS basis                                  ... NOT available
Auxiliary Coulomb fitting basis             ... AVAILABLE
   # of basis functions in Aux-J            ...    720
   # of shells in Aux-J                     ...    240
   Maximum angular momentum in Aux-J        ...      4
Auxiliary J/K fitting basis                 ... NOT available
Auxiliary Correlation fitting basis         ... NOT available
Auxiliary 'external' fitting basis          ... NOT available

Checking pre-screening integrals            ... done (  0.0 sec) Dimension = 96
Check shell pair data                       ... done (  0.0 sec)
Shell pair information
Shell pair cut-off parameter TPreSel        ...   1.0e-10
Total number of shell pairs                 ...      4656
Shell pairs after pre-screening             ...      4316
Total number of primitive shell pairs       ...     18720
Primitive shell pairs kept                  ...     11632
          la=0 lb=0:   1669 shell pairs
          la=1 lb=0:   1365 shell pairs
          la=1 lb=1:    294 shell pairs
          la=2 lb=0:    642 shell pairs
          la=2 lb=1:    275 shell pairs
          la=2 lb=2:     71 shell pairs

Calculating one electron integrals          ... done (  0.0 sec)
Calculating RI/J V-Matrix + Cholesky decomp.... done (  0.1 sec)
Calculating Nuclear repulsion               ... done (  0.0 sec) ENN=    860.546934430921 Eh

Diagonalization of the overlap matrix:
Smallest eigenvalue                        ... 7.962e-04
Time for diagonalization                   ...    0.003 sec
Threshold for overlap eigenvalues          ... 1.000e-07
Number of eigenvalues below threshold      ... 0
Time for construction of square roots      ...    0.013 sec
Total time needed                          ...    0.026 sec

-------------------
DFT GRID GENERATION
-------------------

General Integration Accuracy     IntAcc      ... 4.159
Radial Grid Type                 RadialGrid  ... OptM3 with GC (2021)
Angular Grid (max. ang.)         AngularGrid ... 3 (Lebedev-194)
Angular grid pruning method      GridPruning ... 4 (adaptive)
Weight generation scheme         WeightScheme... mBecke (2022)
Basis function cutoff            BFCut       ... 1.0000e-10
Integration weight cutoff        WCut        ... 1.0000e-14
Partially contracted basis set               ... off
Rotationally invariant grid construction     ... off
Angular grids for H and He will be reduced by one unit

Total number of grid points                  ...    55617
Total number of batches                      ...      880
Average number of points per batch           ...       63
Average number of grid points per atom       ...     2317
Initializing property integral containers    ... done (  0.0 sec)

SHARK setup successfully completed in   0.9 seconds

Maximum memory used throughout the entire STARTUP-calculation: 28.3 MB
-------------------------------------------------------------------------------
                                 ORCA GUESS
                   Start orbitals & Density for SCF / CASSCF
-------------------------------------------------------------------------------

------------
SCF SETTINGS
------------
Hamiltonian:
 Density Functional     Method          .... DFT(GTOs)
 Exchange Functional    Exchange        .... PBE
   PBE kappa parameter   XKappa         ....  0.804000
   PBE mue parameter    XMuePBE         ....  0.219520
 Correlation Functional Correlation     .... PBE
   PBE beta parameter  CBetaPBE         ....  0.066725
 LDA part of GGA corr.  LDAOpt          .... PW91-LDA
 Gradients option       PostSCFGGA      .... off
   NL short-range parameter             ....  6.400000
 RI-approximation to the Coulomb term is turned on
   Number of AuxJ basis functions       .... 720


General Settings:
 Integral files         IntName         .... sp
 Hartree-Fock type      HFTyp           .... RHF
 Total Charge           Charge          ....    0
 Multiplicity           Mult            ....    1
 Number of Electrons    NEL             ....   96
 Basis Dimension        Dim             ....  192
 Nuclear Repulsion      ENuc            ....    860.5469344309 Eh

Convergence Acceleration:
 AO-DIIS                CNVDIIS         .... on
   Start iteration      DIISMaxIt       ....    12
   Startup error        DIISStart       ....  0.200000
   # of expansion vecs  DIISMaxEq       ....     5
   Bias factor          DIISBfac        ....   1.050
   Max. coefficient     DIISMaxC        ....  10.000
 MO-DIIS                CNVKDIIS        .... off
 Trust-Rad. Augm. Hess. CNVTRAH         .... auto
   Auto Start mean grad. ratio tolernc. ....  1.125000
   Auto Start start iteration           ....    50
   Auto Start num. interpolation iter.  ....    10
   Max. Number of Micro iterations      ....    24
   Max. Number of Macro iterations      .... Maxiter - #DIIS iter
   Number of Davidson start vectors     ....     2
   Converg. threshold    (grad. norm)   ....   1.000e-04
   Grad. Scal. Fac. for Micro threshold ....   0.100
   Minimum threshold for Micro iter.    ....   1.000e-02
   NR start threshold (gradient norm)   ....   1.000e-04
   Initial trust radius                 ....   0.400
   Minimum AH scaling param. (alpha)    ....   1.000
   Maximum AH scaling param. (alpha)    .... 1000.000
   Quad. conv. algorithm                .... NR
   White noise on init. David. guess    .... on
   Maximum white noise                  ....   0.010
   Pseudo random numbers                .... off
   Inactive MOs                         .... canonical
   Orbital update algorithm             .... Taylor
   Preconditioner                       .... Diag
   Full preconditioner red. dimension   ....   250
 SOSCF                  CNVSOSCF        .... on
   Start iteration      SOSCFMaxIt      ....   150
   Startup grad/error   SOSCFStart      ....  0.003300
   Hessian update       SOSCFHessUp     .... L-BFGS
 Level Shifting         CNVShift        .... on
   Level shift para.    LevelShift      ....    0.2500
   Turn off err/grad.   ShiftErr        ....    0.0010
 Zerner damping         CNVZerner       .... off
 Static damping         CNVDamp         .... on
   Fraction old density DampFac         ....    0.7000
   Max. Damping (<1)    DampMax         ....    0.9800
   Min. Damping (>=0)   DampMin         ....    0.0000
   Turn off err/grad.   DampErr         ....    0.1000

SCF Procedure:
 Maximum # iterations   MaxIter         ....   125
 SCF integral mode      SCFMode         .... Direct
   Integral package                     .... SHARK and LIBINT hybrid scheme
 Reset frequency        DirectResetFreq ....    20
 Integral Threshold     Thresh          ....  1.000e-09 Eh
 Primitive CutOff       TCut            ....  1.000e-10 Eh

Convergence Tolerance:
 Convergence Check Mode ConvCheckMode   .... Total+1el-Energy
 Convergence forced     ConvForced      .... 0
 Energy Change          TolE            ....  1.000e-05 Eh
 1-El. energy change                    ....  1.000e-02 Eh
 Orbital Gradient       TolG            ....  1.000e-04
 Orbital Rotation angle TolX            ....  1.000e-04
 DIIS Error             TolErr          ....  5.000e-04

------------------------------
INITIAL GUESS: MODEL POTENTIAL
------------------------------
Loading Hartree-Fock densities                     ... done
Calculating cut-offs                               ... done
Initializing the effective Hamiltonian             ... done
Setting up the integral package (SHARK)            ... done
Starting the Coulomb interaction                   ... done (   0.2 sec)
Making the grid                                    ... done (   0.3 sec)
Mapping shells                                     ... done
Starting the XC term evaluation                    ... done (   0.3 sec)
  promolecular density results
     # of electrons  =     95.991322387
     EX              =    -83.230246458
     EC              =     -3.270825584
     EX+EC           =    -86.501072042
Transforming the Hamiltonian                       ... done (   0.0 sec)
Diagonalizing the Hamiltonian                      ... done (   0.0 sec)
Back transforming the eigenvectors                 ... done (   0.0 sec)
Now organizing SCF variables                       ... done
                      ------------------
                      INITIAL GUESS DONE (   0.8 sec)
                      ------------------
             **** ENERGY FILE WAS UPDATED (sp.en.tmp) ****
Finished Guess after   1.0 sec
Maximum memory used throughout the entire GUESS-calculation: 22.1 MB

-------------------------------------------------------------------------------------------
                                      ORCA LEAN-SCF
                              memory conserving SCF solver
-------------------------------------------------------------------------------------------

----------------------------------------D-I-I-S--------------------------------------------
Iteration    Energy (Eh)           Delta-E    RMSDP     MaxDP     DIISErr   Damp  Time(sec)
-------------------------------------------------------------------------------------------
               ***  Starting incremental Fock matrix formation  ***
    1    -685.5228672567078547     0.00e+00  4.55e-03  1.01e-01  2.24e-01  0.700   1.2
    2    -685.6720037112330601    -1.49e-01  2.95e-03  7.56e-02  9.13e-02  0.700   1.2
                               ***Turning on AO-DIIS***
    3    -685.7195946507405324    -4.76e-02  1.07e-03  2.45e-02  1.93e-02  0.700   1.1
    4    -685.7510539311609818    -3.15e-02  1.45e-03  2.29e-02  1.12e-02  0.000   1.1
    5    -685.8237125678368784    -7.27e-02  4.37e-04  1.32e-02  4.92e-03  0.000   1.1
                              *** Initializing SOSCF ***
---------------------------------------S-O-S-C-F--------------------------------------
Iteration    Energy (Eh)           Delta-E    RMSDP     MaxDP     MaxGrad    Time(sec)
--------------------------------------------------------------------------------------
    6    -685.8240243002600209    -3.12e-04  1.37e-04  3.38e-03  1.31e-03     1.1
               *** Restarting incremental Fock matrix formation ***
    7    -685.8240548517438810    -3.06e-05  9.18e-05  2.07e-03  1.82e-04     1.2
    8    -685.8240557229941032    -8.71e-07  3.63e-05  7.77e-04  2.14e-04     1.0
                 **** Energy Check signals convergence ****

               *****************************************************
               *                     SUCCESS                       *
               *           SCF CONVERGED AFTER   8 CYCLES          *
               *****************************************************

             **** ENERGY FILE WAS UPDATED (sp.en.tmp) ****

----------------
TOTAL SCF ENERGY
----------------

Total Energy       :       -685.82405572299410 Eh          -18662.22133 eV

Components:
Nuclear Repulsion  :        860.54693443092140 Eh           23416.67257 eV
Electronic Energy  :      -1546.37099015391550 Eh          -42078.89389 eV
One Electron Energy:      -2650.46769539949992 Eh          -72122.89265 eV
Two Electron Energy:       1104.09670524558442 Eh           30043.99876 eV

Virial components:
Potential Energy   :      -1366.88440588427557 Eh          -37194.81563 eV
Kinetic Energy     :        681.06035016128135 Eh           18532.59431 eV
Virial Ratio       :          2.00699454249625

DFT components:
N(Alpha)           :       47.999913122993 electrons
N(Beta)            :       47.999913122993 electrons
N(Total)           :       95.999826245986 electrons
E(X)               :      -84.596661429664 Eh       
E(C)               :       -3.283353269180 Eh       
E(XC)              :      -87.880014698844 Eh       

---------------
SCF CONVERGENCE
---------------

  Last Energy change         ...    8.7125e-07  Tolerance :   1.0000e-05
  Last MAX-Density change    ...    7.7727e-04  Tolerance :   1.0000e-03
  Last RMS-Density change    ...    3.6279e-05  Tolerance :   1.0000e-04
  Last DIIS Error            ...    1.3088e-03  Tolerance :   5.0000e-04
  Last Orbital Gradient      ...    2.1425e-04  Tolerance :   1.0000e-04
  Last Orbital Rotation      ...    1.5825e-04  Tolerance :   1.0000e-04


----------------
ORBITAL ENERGIES
----------------

  NO   OCC          E(Eh)            E(eV) 
   0   2.0000     -18.778027      -510.9761 
   1   2.0000     -18.768862      -510.7267 
   2   2.0000     -18.766307      -510.6572 
   3   2.0000     -18.766204      -510.6544 
   4   2.0000     -18.737030      -509.8605 
   5   2.0000     -18.736683      -509.8511 
   6   2.0000      -9.989900      -271.8390 
   7   2.0000      -9.955414      -270.9006 
   8   2.0000      -9.949918      -270.7510 
   9   2.0000      -9.937500      -270.4131 
  10   2.0000      -9.929597      -270.1981 
  11   2.0000      -9.912609      -269.7358 
  12   2.0000      -0.982520       -26.7357 
  13   2.0000      -0.953054       -25.9339 
  14   2.0000      -0.942912       -25.6579 
  15   2.0000      -0.923000       -25.1161 
  16   2.0000      -0.910999       -24.7895 
  17   2.0000      -0.906276       -24.6610 
  18   2.0000      -0.699146       -19.0247 
  19   2.0000      -0.690684       -18.7945 
  20   2.0000      -0.619380       -16.8542 
  21   2.0000      -0.582740       -15.8572 
  22   2.0000      -0.570793       -15.5321 
  23   2.0000      -0.531025       -14.4499 
  24   2.0000      -0.504206       -13.7202 
  25   2.0000      -0.482001       -13.1159 
  26   2.0000      -0.469525       -12.7764 
  27   2.0000      -0.465841       -12.6762 
  28   2.0000      -0.451063       -12.2740 
  29   2.0000      -0.425414       -11.5761 
  30   2.0000      -0.409752       -11.1499 
  31   2.0000      -0.391045       -10.6409 
  32   2.0000      -0.383264       -10.4291 
  33   2.0000      -0.368797       -10.0355 
  34   2.0000      -0.361453        -9.8356 
  35   2.0000      -0.352829        -9.6010 
  36   2.0000      -0.338255        -9.2044 
  37   2.0000      -0.324500        -8.8301 
  38   2.0000      -0.298377        -8.1192 
  39   2.0000      -0.293049        -7.9743 
  40   2.0000      -0.273522        -7.4429 
  41   2.0000      -0.263683        -7.1752 
  42   2.0000      -0.254673        -6.9300 
  43   2.0000      -0.250258        -6.8099 
  44   2.0000      -0.239590        -6.5196 
  45   2.0000      -0.221358        -6.0235 
  46   2.0000      -0.211054        -5.7431 
  47   2.0000      -0.193764        -5.2726 
  48   0.0000       0.002627         0.0715 
  49   0.0000       0.007990         0.2174 
  50   0.0000       0.028999         0.7891 
  51   0.0000       0.047803         1.3008 
  52   0.0000       0.066397         1.8068 
  53   0.0000       0.073336         1.9956 
  54   0.0000       0.087137         2.3711 
  55   0.0000       0.091240         2.4828 
  56   0.0000       0.096645         2.6298 
  57   0.0000       0.111998         3.0476 
  58   0.0000       0.123998         3.3741 
*Only the first 10 virtual orbitals were printed.

                    ********************************
                    * MULLIKEN POPULATION ANALYSIS *
                    ********************************

-----------------------
MULLIKEN ATOMIC CHARGES
-----------------------
   0 C :    0.005182
   1 C :    0.027633
   2 H :    0.078818
   3 C :    0.060643
   4 H :    0.061881
   5 C :    0.054578
   6 H :    0.054599
   7 C :   -0.012161
   8 H :    0.065351
   9 C :    0.216450
  10 H :    0.070693
  11 O :   -0.316383
  12 O :   -0.394040
  13 O :   -0.412771
  14 O :   -0.403734
  15 O :   -0.431410
  16 O :   -0.436729
  17 H :    0.072298
  18 H :    0.111717
  19 H :    0.306971
  20 H :    0.311427
  21 H :    0.306130
  22 H :    0.299316
  23 H :    0.303542
Sum of atomic charges:   -0.0000000

--------------------------------
MULLIKEN REDUCED ORBITAL CHARGES
--------------------------------
  0 C s       :     3.035157  s :     3.035157
      pz      :     1.054487  p :     2.897541
      px      :     0.828360
      py      :     1.014695
      dz2     :     0.010603  d :     0.062120
      dxz     :     0.018518
      dyz     :     0.004874
      dx2y2   :     0.015882
      dxy     :     0.012243

  1 C s       :     3.070532  s :     3.070532
      pz      :     1.057557  p :     2.837364
      px      :     0.843889
      py      :     0.935919
      dz2     :     0.010887  d :     0.064470
      dxz     :     0.016606
      dyz     :     0.007063
      dx2y2   :     0.014060
      dxy     :     0.015855

  2 H s       :     0.921182  s :     0.921182

  3 C s       :     3.047162  s :     3.047162
      pz      :     0.802443  p :     2.823680
      px      :     1.024986
      py      :     0.996251
      dz2     :     0.017241  d :     0.068514
      dxz     :     0.016272
      dyz     :     0.015871
      dx2y2   :     0.009187
      dxy     :     0.009943

  4 H s       :     0.938119  s :     0.938119

  5 C s       :     3.043401  s :     3.043401
      pz      :     0.780509  p :     2.834225
      px      :     1.050564
      py      :     1.003152
      dz2     :     0.018843  d :     0.067796
      dxz     :     0.016263
      dyz     :     0.013517
      dx2y2   :     0.009792
      dxy     :     0.009380

  6 H s       :     0.945401  s :     0.945401

  7 C s       :     3.064487  s :     3.064487
      pz      :     0.834213  p :     2.881700
      px      :     1.000100
      py      :     1.047387
      dz2     :     0.015002  d :     0.065975
      dxz     :     0.019660
      dyz     :     0.011350
      dx2y2   :     0.011016
      dxy     :     0.008946

  8 H s       :     0.934649  s :     0.934649

  9 C s       :     2.974258  s :     2.974258
      pz      :     0.803734  p :     2.708518
      px      :     0.889166
      py      :     1.015617
      dz2     :     0.022412  d :     0.100775
      dxz     :     0.030267
      dyz     :     0.018411
      dx2y2   :     0.014975
      dxy     :     0.014709

 10 H s       :     0.929307  s :     0.929307

 11 O s       :     3.752465  s :     3.752465
      pz      :     1.652355  p :     4.548665
      px      :     1.229241
      py      :     1.667068
      dz2     :     0.002164  d :     0.015253
      dxz     :     0.004730
      dyz     :     0.002224
      dx2y2   :     0.002664
      dxy     :     0.003471

 12 O s       :     3.775048  s :     3.775048
      pz      :     1.479165  p :     4.603846
      px      :     1.854493
      py      :     1.270187
      dz2     :     0.005574  d :     0.015147
      dxz     :     0.001993
      dyz     :     0.002713
      dx2y2   :     0.004177
      dxy     :     0.000690

 13 O s       :     3.787630  s :     3.787630
      pz      :     1.487582  p :     4.609952
      px      :     1.683193
      py      :     1.439177
      dz2     :     0.004993  d :     0.015189
      dxz     :     0.002599
      dyz     :     0.002461
      dx2y2   :     0.001938
      dxy     :     0.003197

 14 O s       :     3.779889  s :     3.779889
      pz      :     1.214573  p :     4.608646
      px      :     1.530935
      py      :     1.863138
      dz2     :     0.001875  d :     0.015199
      dxz     :     0.007022
      dyz     :     0.001812
      dx2y2   :     0.002787
      dxy     :     0.001703

 15 O s       :     3.788889  s :     3.788889
      pz      :     1.357455  p :     4.627091
      px      :     1.568876
      py      :     1.700760
      dz2     :     0.003153  d :     0.015431
      dxz     :     0.002503
      dyz     :     0.003837
      dx2y2   :     0.001771
      dxy     :     0.004167

 16 O s       :     3.790416  s :     3.790416
      pz      :     1.721079  p :     4.630739
      px      :     1.503286
      py      :     1.406374
      dz2     :     0.001462  d :     0.015575
      dxz     :     0.002358
      dyz     :     0.003667
      dx2y2   :     0.004993
      dxy     :     0.003095

 17 H s       :     0.927702  s :     0.927702

 18 H s       :     0.888283  s :     0.888283

 19 H s       :     0.693029  s :     0.693029

 20 H s       :     0.688573  s :     0.688573

 21 H s       :     0.693870  s :     0.693870

 22 H s       :     0.700684  s :     0.700684

 23 H s       :     0.696458  s :     0.696458


------------------------
MULLIKEN OVERLAP CHARGES
------------------------
B(  0-C ,  1-C ) :   0.4574 B(  0-C ,  3-C ) :  -0.0822 B(  0-C , 11-O ) :  -0.0745 
B(  0-C , 16-O ) :   0.6454 B(  0-C , 17-H ) :   0.6385 B(  0-C , 18-H ) :   0.6964 
B(  0-C , 23-H ) :  -0.0762 B(  1-C ,  2-H ) :   0.6536 B(  1-C ,  3-C ) :   0.4780 
B(  1-C ,  4-H ) :  -0.0919 B(  1-C ,  7-C ) :  -0.1071 B(  1-C ,  9-C ) :  -0.1059 
B(  1-C , 11-O ) :   0.5097 B(  1-C , 15-O ) :  -0.0879 B(  1-C , 16-O ) :  -0.1436 
B(  1-C , 17-H ) :  -0.0626 B(  2-H ,  3-C ) :  -0.0911 B(  2-H , 11-O ) :  -0.0535 
B(  3-C ,  4-H ) :   0.6165 B(  3-C ,  5-C ) :   0.2447 B(  3-C ,  6-H ) :  -0.0846 
B(  3-C ,  7-C ) :   0.0502 B(  3-C ,  9-C ) :  -0.0766 B(  3-C , 14-O ) :  -0.0890 
B(  3-C , 15-O ) :   0.6401 B(  3-C , 18-H ) :  -0.0573 B(  3-C , 22-H ) :  -0.1094 
B(  4-H ,  5-C ) :  -0.0751 B(  5-C ,  6-H ) :   0.7069 B(  5-C ,  7-C ) :   0.4238 
B(  5-C ,  8-H ) :  -0.0976 B(  5-C ,  9-C ) :  -0.0771 B(  5-C , 11-O ) :  -0.0543 
B(  5-C , 13-O ) :  -0.0683 B(  5-C , 14-O ) :   0.5249 B(  5-C , 15-O ) :  -0.0796 
B(  5-C , 21-H ) :  -0.0630 B(  6-H ,  7-C ) :  -0.1511 B(  7-C ,  8-H ) :   0.6087 
B(  7-C ,  9-C ) :   0.3173 B(  7-C , 10-H ) :  -0.0774 B(  7-C , 11-O ) :  -0.0764 
B(  7-C , 12-O ) :  -0.1127 B(  7-C , 13-O ) :   0.4808 B(  7-C , 14-O ) :  -0.0806 
B(  7-C , 20-H ) :  -0.0715 B(  9-C , 10-H ) :   0.6875 B(  9-C , 11-O ) :   0.7022 
B(  9-C , 12-O ) :   0.6369 B(  9-C , 13-O ) :  -0.0892 B( 10-H , 11-O ) :  -0.0792 
B( 11-O , 12-O ) :  -0.1364 B( 12-O , 19-H ) :   0.4939 B( 13-O , 20-H ) :   0.5222 
B( 13-O , 22-H ) :   0.0784 B( 14-O , 18-H ) :   0.0529 B( 14-O , 21-H ) :   0.5132 
B( 15-O , 22-H ) :   0.5430 B( 16-O , 17-H ) :  -0.0549 B( 16-O , 23-H ) :   0.5291 
B( 17-H , 18-H ) :  -0.0629 


                     *******************************
                     * LOEWDIN POPULATION ANALYSIS *
                     *******************************

----------------------
LOEWDIN ATOMIC CHARGES
----------------------
   0 C :   -0.153087
   1 C :   -0.071483
   2 H :    0.120625
   3 C :   -0.065379
   4 H :    0.113829
   5 C :   -0.081270
   6 H :    0.095396
   7 C :   -0.089274
   8 H :    0.104344
   9 C :   -0.000646
  10 H :    0.101939
  11 O :   -0.142877
  12 O :   -0.306213
  13 O :   -0.303692
  14 O :   -0.306803
  15 O :   -0.318548
  16 O :   -0.336562
  17 H :    0.106437
  18 H :    0.106753
  19 H :    0.289031
  20 H :    0.292754
  21 H :    0.289519
  22 H :    0.272033
  23 H :    0.283175

-------------------------------
LOEWDIN REDUCED ORBITAL CHARGES
-------------------------------
  0 C s       :     2.925392  s :     2.925392
      pz      :     1.096672  p :     3.084788
      px      :     0.935123
      py      :     1.052994
      dz2     :     0.024695  d :     0.142907
      dxz     :     0.044774
      dyz     :     0.010848
      dx2y2   :     0.035208
      dxy     :     0.027383

  1 C s       :     2.906741  s :     2.906741
      pz      :     1.093369  p :     3.013595
      px      :     0.916162
      py      :     1.004064
      dz2     :     0.025775  d :     0.151146
      dxz     :     0.040430
      dyz     :     0.015489
      dx2y2   :     0.033764
      dxy     :     0.035688

  2 H s       :     0.879375  s :     0.879375

  3 C s       :     2.885755  s :     2.885755
      pz      :     0.903823  p :     3.021407
      px      :     1.063347
      py      :     1.054238
      dz2     :     0.039173  d :     0.158216
      dxz     :     0.039078
      dyz     :     0.033339
      dx2y2   :     0.024811
      dxy     :     0.021816

  4 H s       :     0.886171  s :     0.886171

  5 C s       :     2.897744  s :     2.897744
      pz      :     0.879584  p :     3.023166
      px      :     1.075470
      py      :     1.068112
      dz2     :     0.042831  d :     0.160360
      dxz     :     0.040228
      dyz     :     0.029648
      dx2y2   :     0.023195
      dxy     :     0.024459

  6 H s       :     0.904604  s :     0.904604

  7 C s       :     2.904233  s :     2.904233
      pz      :     0.931888  p :     3.030138
      px      :     1.035297
      py      :     1.062953
      dz2     :     0.035836  d :     0.154902
      dxz     :     0.045890
      dyz     :     0.024362
      dx2y2   :     0.025666
      dxy     :     0.023148

  8 H s       :     0.895656  s :     0.895656

  9 C s       :     2.880654  s :     2.880654
      pz      :     0.910174  p :     2.893629
      px      :     0.947633
      py      :     1.035821
      dz2     :     0.050658  d :     0.226363
      dxz     :     0.068728
      dyz     :     0.040127
      dx2y2   :     0.035789
      dxy     :     0.031061

 10 H s       :     0.898061  s :     0.898061

 11 O s       :     3.470450  s :     3.470450
      pz      :     1.669554  p :     4.642675
      px      :     1.292537
      py      :     1.680584
      dz2     :     0.003411  d :     0.029752
      dxz     :     0.009958
      dyz     :     0.002890
      dx2y2   :     0.006124
      dxy     :     0.007369

 12 O s       :     3.535912  s :     3.535912
      pz      :     1.553052  p :     4.743240
      px      :     1.853526
      py      :     1.336661
      dz2     :     0.010019  d :     0.027062
      dxz     :     0.002651
      dyz     :     0.005760
      dx2y2   :     0.007305
      dxy     :     0.001327

 13 O s       :     3.533064  s :     3.533064
      pz      :     1.558664  p :     4.743796
      px      :     1.692986
      py      :     1.492146
      dz2     :     0.008641  d :     0.026833
      dxz     :     0.004726
      dyz     :     0.004357
      dx2y2   :     0.003380
      dxy     :     0.005728

 14 O s       :     3.529935  s :     3.529935
      pz      :     1.288332  p :     4.749806
      px      :     1.591380
      py      :     1.870095
      dz2     :     0.005074  d :     0.027062
      dxz     :     0.012938
      dyz     :     0.003262
      dx2y2   :     0.003766
      dxy     :     0.002021

 15 O s       :     3.531323  s :     3.531323
      pz      :     1.422395  p :     4.760348
      px      :     1.608325
      py      :     1.729627
      dz2     :     0.006409  d :     0.026877
      dxz     :     0.004669
      dyz     :     0.007025
      dx2y2   :     0.002562
      dxy     :     0.006212

 16 O s       :     3.539938  s :     3.539938
      pz      :     1.739631  p :     4.769669
      px      :     1.563337
      py      :     1.466702
      dz2     :     0.002375  d :     0.026955
      dxz     :     0.003570
      dyz     :     0.006462
      dx2y2   :     0.008752
      dxy     :     0.005796

 17 H s       :     0.893563  s :     0.893563

 18 H s       :     0.893247  s :     0.893247

 19 H s       :     0.710969  s :     0.710969

 20 H s       :     0.707246  s :     0.707246

 21 H s       :     0.710481  s :     0.710481

 22 H s       :     0.727967  s :     0.727967

 23 H s       :     0.716825  s :     0.716825


---------------------------------
LOEWDIN BOND ORDERS (THRESH 0.050000)
---------------------------------
B(  0-C ,  1-C ) :   1.0484 B(  0-C ,  3-C ) :   0.0539 B(  0-C , 11-O ) :   0.0666 
B(  0-C , 16-O ) :   1.2386 B(  0-C , 17-H ) :   0.9079 B(  0-C , 18-H ) :   0.8990 
B(  1-C ,  2-H ) :   0.8744 B(  1-C ,  3-C ) :   1.0286 B(  1-C ,  5-C ) :   0.0525 
B(  1-C ,  9-C ) :   0.0606 B(  1-C , 11-O ) :   1.1213 B(  1-C , 15-O ) :   0.0780 
B(  1-C , 16-O ) :   0.0861 B(  3-C ,  4-H ) :   0.8666 B(  3-C ,  5-C ) :   1.0127 
B(  3-C ,  7-C ) :   0.0520 B(  3-C , 11-O ) :   0.0557 B(  3-C , 14-O ) :   0.0574 
B(  3-C , 15-O ) :   1.2306 B(  5-C ,  6-H ) :   0.8682 B(  5-C ,  7-C ) :   1.0184 
B(  5-C , 13-O ) :   0.0809 B(  5-C , 14-O ) :   1.2200 B(  5-C , 15-O ) :   0.0823 
B(  7-C ,  8-H ) :   0.8702 B(  7-C ,  9-C ) :   1.0144 B(  7-C , 11-O ) :   0.0581 
B(  7-C , 12-O ) :   0.0639 B(  7-C , 13-O ) :   1.2045 B(  7-C , 14-O ) :   0.0787 
B(  9-C , 10-H ) :   0.8797 B(  9-C , 11-O ) :   1.2159 B(  9-C , 12-O ) :   1.2605 
B(  9-C , 13-O ) :   0.0632 B( 11-O , 12-O ) :   0.0960 B( 12-O , 19-H ) :   0.8730 
B( 13-O , 20-H ) :   0.8784 B( 13-O , 22-H ) :   0.0591 B( 14-O , 21-H ) :   0.8775 
B( 15-O , 22-H ) :   0.8642 B( 16-O , 23-H ) :   0.8874 

------------------------------------------
LOEWDIN REDUCED ORBITAL POPULATIONS PER MO
-------------------------------------------
THRESHOLD FOR PRINTING IS 0.1%%
                      0         1         2         3         4         5   
                 -18.77803 -18.76886 -18.76631 -18.76620 -18.73703 -18.73668
                   2.00000   2.00000   2.00000   2.00000   2.00000   2.00000
                  --------  --------  --------  --------  --------  --------
11 O  s               0.0       0.0       0.7      99.1       0.0       0.0
12 O  s               0.0       0.0      99.2       0.7       0.0       0.0
13 O  s              99.9       0.0       0.0       0.0       0.0       0.0
14 O  s               0.0      99.9       0.0       0.0       0.0       0.0
15 O  s               0.0       0.0       0.0       0.0      99.9       0.0
16 O  s               0.0       0.0       0.0       0.0       0.0      99.9

                      6         7         8         9        10        11   
                  -9.98990  -9.95541  -9.94992  -9.93750  -9.92960  -9.91261
                   2.00000   2.00000   2.00000   2.00000   2.00000   2.00000
                  --------  --------  --------  --------  --------  --------
 0 C  s               0.0       0.0       0.0       0.0       0.0      99.6
 1 C  s               0.0       0.0       0.0       0.0      99.6       0.0
 1 C  py              0.0       0.0       0.0       0.1       0.0       0.0
 3 C  s               0.0       0.0       0.0      99.6       0.0       0.0
 3 C  py              0.0       0.0       0.0       0.0       0.1       0.0
 5 C  s               0.0       0.0      99.6       0.0       0.0       0.0
 7 C  s               0.0      99.6       0.0       0.0       0.0       0.0
 9 C  s              99.6       0.0       0.0       0.0       0.0       0.0
14 O  pz              0.0       0.0       0.1       0.0       0.0       0.0

                     12        13        14        15        16        17   
                  -0.98252  -0.95305  -0.94291  -0.92300  -0.91100  -0.90628
                   2.00000   2.00000   2.00000   2.00000   2.00000   2.00000
                  --------  --------  --------  --------  --------  --------
 0 C  s               0.3       0.0       0.1       1.4       8.1       0.8
 0 C  pz              0.2       0.0       0.0       0.1       0.3       0.4
 0 C  px              0.2       0.0       0.0       0.1       4.8       1.3
 0 C  py              0.0       0.0       0.0       0.3       1.9       0.3
 0 C  dz2             0.0       0.0       0.0       0.0       0.1       0.0
 0 C  dx2y2           0.0       0.0       0.0       0.0       0.1       0.0
 0 C  dxy             0.0       0.0       0.0       0.0       0.4       0.1
 1 C  s               3.6       0.2       0.1       4.2       0.3       1.0
 1 C  pz              0.1       0.0       0.0       0.1       0.7       0.3
 1 C  px              2.6       0.2       0.0       0.9       0.4       2.1
 1 C  py              0.5       0.5       0.1       0.1       0.5       2.0
 1 C  dxy             0.1       0.0       0.0       0.0       0.0       0.2
 2 H  s               0.4       0.0       0.0       0.7       0.0       0.1
 3 C  s               1.2       0.6       0.8       5.9       1.4       2.3
 3 C  pz              0.0       0.0       0.3       3.7       1.7       2.5
 3 C  px              0.2       0.4       0.2       0.1       0.2       0.1
 3 C  py              0.3       0.2       0.0       0.1       0.6       1.2
 3 C  dz2             0.0       0.0       0.0       0.1       0.1       0.2
 3 C  dyz             0.0       0.0       0.0       0.1       0.1       0.1
 4 H  s               0.1       0.1       0.2       0.7       0.1       0.4
 5 C  s               1.5       4.1       5.9       0.0       0.1       0.0
 5 C  pz              0.0       0.6       7.2       1.6       0.2       0.5
 5 C  px              0.0       0.1       1.3       0.4       0.1       0.1
 5 C  py              0.3       0.2       0.0       0.0       0.0       0.0
 5 C  dz2             0.0       0.1       0.6       0.0       0.0       0.0
 6 H  s               0.2       0.7       0.6       0.0       0.0       0.0
 7 C  s               4.3       5.8       1.1       0.3       0.0       0.0
 7 C  pz              0.6       2.9       3.4       0.0       0.0       0.1
 7 C  px              0.2       0.6       1.9       0.1       0.0       0.0
 7 C  py              0.5       2.7       0.0       0.0       0.0       0.0
 7 C  dz2             0.0       0.2       0.1       0.0       0.0       0.0
 7 C  dxz             0.0       0.2       0.1       0.0       0.0       0.0
 7 C  dyz             0.0       0.1       0.1       0.0       0.0       0.0
 8 H  s               0.7       0.7       0.1       0.1       0.0       0.0
 9 C  s              14.9       1.4       0.1       0.4       0.0       0.0
 9 C  pz              0.3       0.4       0.0       4.8       0.1       5.9
 9 C  px              2.3       1.1       0.1       1.2       0.0       2.0
 9 C  py              0.3       2.2       0.1       0.5       0.0       0.6
 9 C  dz2             0.1       0.1       0.0       0.1       0.0       0.1
 9 C  dxz             0.1       0.0       0.0       0.1       0.0       0.2
 9 C  dyz             0.1       0.1       0.0       0.2       0.0       0.2
 9 C  dx2y2           0.0       0.0       0.0       0.1       0.0       0.2
10 H  s               1.9       0.1       0.0       0.1       0.0       0.0
11 O  s              22.5       3.7       0.0       9.6       0.3      19.0
11 O  pz              1.3       0.2       0.0       0.1       0.0       0.3
11 O  px              0.2       0.0       0.0       0.2       0.0       0.0
11 O  py              0.4       0.0       0.0       0.4       0.0       0.4
12 O  s              19.6       7.4       0.0      17.2       0.4      15.4
12 O  pz              1.8       0.5       0.0       0.5       0.0       0.3
12 O  py              0.0       0.1       0.0       0.2       0.0       0.3
13 O  s               6.1      34.7      16.6       1.2       0.3       0.0
13 O  pz              0.4       1.6       0.6       0.1       0.0       0.0
13 O  py              0.0       0.4       0.2       0.0       0.0       0.0
14 O  s               1.7      11.4      43.0       2.1       0.0       0.4
14 O  pz              0.1       0.2       0.3       0.0       0.0       0.0
14 O  px              0.1       0.5       1.8       0.1       0.0       0.0
14 O  py              0.0       0.1       0.2       0.0       0.0       0.0
15 O  s               0.9       1.0       0.3      23.8      11.5      19.7
15 O  pz              0.1       0.0       0.0       0.5       0.2       0.3
15 O  px              0.0       0.0       0.0       0.3       0.1       0.2
15 O  py              0.0       0.0       0.0       0.8       0.3       0.6
16 O  s               0.1       0.0       0.1       3.6      47.2       8.2
16 O  pz              0.0       0.0       0.0       0.0       0.1       0.0
16 O  px              0.0       0.0       0.0       0.2       2.4       0.4
16 O  py              0.0       0.0       0.0       0.0       0.2       0.0
17 H  s               0.1       0.0       0.0       0.2       0.9       0.1
18 H  s               0.2       0.0       0.1       0.1       0.9       0.1
19 H  s               3.9       1.5       0.0       3.4       0.1       3.1
20 H  s               1.2       7.0       3.3       0.3       0.1       0.0
21 H  s               0.4       2.3       8.6       0.5       0.0       0.1
22 H  s               0.4       0.5       0.0       4.7       2.2       3.7
23 H  s               0.0       0.0       0.1       0.7       9.7       1.7

                     18        19        20        21        22        23   
                  -0.69915  -0.69068  -0.61938  -0.58274  -0.57079  -0.53102
                   2.00000   2.00000   2.00000   2.00000   2.00000   2.00000
                  --------  --------  --------  --------  --------  --------
 0 C  s               0.1       5.2      11.9       0.0      13.0       0.7
 0 C  pz              0.1       2.3       0.8       0.0       0.5       0.1
 0 C  px              0.1       1.8       0.6       0.0       0.1       0.2
 0 C  py              0.1       0.0       0.3       0.4       1.8       0.2
 1 C  s               0.6      17.7       4.0       0.1       3.3       0.5
 1 C  pz              0.5       0.3       1.1       0.9       6.0       0.1
 1 C  px              0.0       0.4       2.3       0.8       0.7       0.2
 1 C  py              2.1       0.2       1.3       6.1       1.8       0.3
 1 C  dxy             0.1       0.0       0.0       0.1       0.0       0.0
 2 H  s               0.0       3.7       1.3       0.0       1.8       0.2
 3 C  s               6.4       6.2       2.8       8.7       1.0       0.9
 3 C  pz              3.1       0.7       1.7       0.2       1.2       0.1
 3 C  px              1.0       0.6       1.0       3.7       1.7       0.1
 3 C  py              0.1       2.7       1.8       0.0       2.1       0.6
 4 H  s               1.2       1.5       1.0       4.9       0.3       0.6
 5 C  s              14.0       0.3       6.1       3.0       3.5       0.3
 5 C  pz              3.3       0.2       0.6       0.0       0.1       1.1
 5 C  px              0.2       2.2       1.7       8.5       0.1       0.0
 5 C  py              1.1       0.1       1.2       0.0       0.8       0.2
 5 C  dz2             0.2       0.0       0.0       0.0       0.0       0.0
 6 H  s               2.4       0.0       2.3       1.5       1.7       0.0
 7 C  s              13.9       3.5       3.5       3.6       1.6       0.7
 7 C  pz              1.0       0.0       0.1       1.6       0.1       6.5
 7 C  px              2.9       0.0       0.9       0.2       1.0       0.4
 7 C  py              0.1       2.4       3.8       5.7       0.9       0.5
 7 C  dz2             0.1       0.0       0.0       0.0       0.0       0.2
 7 C  dxy             0.1       0.0       0.0       0.1       0.0       0.0
 8 H  s               2.7       0.8       1.6       1.6       1.0       0.2
 9 C  s               2.2       9.0       1.7       7.4       0.3       0.7
 9 C  pz              0.4       1.2       0.8       0.8       0.9      10.1
 9 C  px              1.0       0.3       2.3       0.4       1.4       0.0
 9 C  py              4.5       0.6       2.0       0.8       1.7       0.1
 9 C  dz2             0.0       0.0       0.0       0.0       0.0       0.2
 9 C  dx2y2           0.1       0.0       0.1       0.0       0.1       0.0
10 H  s               0.3       2.4       0.5       3.6       0.2       0.3
11 O  s               2.5       0.4       2.0       1.1       0.0       0.2
11 O  pz              0.1       0.1       0.1       0.5       0.7       0.4
11 O  px              0.1      10.8       0.7       8.2       5.9       2.8
11 O  py              0.2       0.7       0.2       0.3       2.1       0.2
12 O  s               0.5       1.8       0.3       0.9       0.2       0.0
12 O  pz              0.2       1.0       0.3       2.8       0.2       3.6
12 O  px              0.1       0.1       0.2       0.1       0.3       0.5
12 O  py              1.3       1.9       2.8       3.1       0.0      21.0
12 O  dz2             0.0       0.0       0.0       0.1       0.0       0.1
12 O  dyz             0.0       0.0       0.0       0.0       0.0       0.1
13 O  s               3.6       0.9       0.2       0.8       0.0       0.0
13 O  pz              1.3       0.3       0.7       1.2       0.8       2.9
13 O  px              1.6       0.5       0.5       1.1       0.4       6.4
13 O  py              1.9       1.2       2.3       0.1       1.9      10.9
14 O  s               4.2       0.1       0.5       0.6       0.3       0.1
14 O  pz              4.6       0.3       4.4       0.7       5.3       3.4
14 O  px              0.3       0.1       0.4       0.5       0.4       0.1
15 O  s               2.7       2.0       0.8       0.6       0.4       0.2
15 O  pz              1.1       0.9       1.5       4.0       0.6       1.9
15 O  px              0.3       0.5       0.2       2.8       0.9       0.7
15 O  py              0.0       0.1       0.1       0.0       0.3       0.0
16 O  s               0.1       1.8       1.8       0.2       1.2       0.1
16 O  pz              0.0       0.4       1.1       0.0       1.3       0.2
16 O  px              0.0       0.3       1.4       0.1       2.6       0.3
16 O  py              0.0       0.5       3.0       0.0       6.9       1.1
17 H  s               0.0       1.1       3.5       0.0       5.3       0.4
18 H  s               0.0       1.1       2.6       0.0       4.0       0.2
19 H  s               0.6       1.3       1.1       1.7       0.0       7.3
20 H  s               2.3       0.9       1.0       0.5       0.8       5.8
21 H  s               2.6       0.2       1.5       0.1       1.8       1.0
22 H  s               1.1       0.8       0.6       2.0       0.4       0.7
23 H  s               0.0       0.8       2.1       0.0       3.3       0.5

                     24        25        26        27        28        29   
                  -0.50421  -0.48200  -0.46953  -0.46584  -0.45106  -0.42541
                   2.00000   2.00000   2.00000   2.00000   2.00000   2.00000
                  --------  --------  --------  --------  --------  --------
 0 C  s               0.2       0.1       0.4       0.0       0.6       0.7
 0 C  pz              0.0       1.8       4.0       0.2       0.3       3.2
 0 C  px              0.8       1.9       1.3       0.6      18.2       1.5
 0 C  py              0.8       0.1       1.3       0.8       0.3       2.0
 0 C  dz2             0.0       0.0       0.0       0.0       0.3       0.0
 0 C  dx2y2           0.0       0.0       0.0       0.0       0.2       0.0
 0 C  dxy             0.0       0.0       0.0       0.0       0.1       0.0
 1 C  s               0.6       0.4       3.5       0.0       0.7       0.1
 1 C  pz              0.1       4.5       0.8       1.0       4.8       0.2
 1 C  px              0.1       3.3       4.4       0.2       1.4       3.7
 1 C  py              0.3       2.3       2.8       2.8       1.2       1.1
 1 C  dxy             0.0       0.0       0.2       0.0       0.0       0.0
 2 H  s               0.1       3.3       4.2       0.1       0.0       0.6
 3 C  s               0.9       0.3       0.1       0.0       0.2       0.1
 3 C  pz              2.6       0.2       0.1       0.1       0.6       0.1
 3 C  px              0.3       2.5       0.2       3.7       1.0       5.8
 3 C  py              4.8       3.0       6.8       1.6       0.5       0.2
 3 C  dz2             0.0       0.1       0.1       0.0       0.0       0.0
 3 C  dyz             0.1       0.0       0.1       0.0       0.0       0.0
 3 C  dxy             0.0       0.0       0.1       0.0       0.0       0.0
 4 H  s               0.8       0.4       1.1       0.3       0.5       0.7
 5 C  s               0.1       0.3       1.2       0.8       0.1       0.1
 5 C  pz              2.2       6.2       1.1       3.4       0.1       2.1
 5 C  px              6.5       0.2       4.1       0.5       0.7       1.0
 5 C  py              2.0       4.9       0.8       7.8       3.8       0.1
 5 C  dz2             0.1       0.0       0.0       0.0       0.0       0.0
 5 C  dxz             0.2       0.1       0.0       0.0       0.0       0.2
 6 H  s               2.0       1.1       2.6       4.1       2.3       0.2
 7 C  s               0.6       0.0       0.3       2.3       0.0       0.1
 7 C  pz              6.2       0.5       0.2      11.4       0.0       0.8
 7 C  px              0.3       8.1       2.6       1.3       1.7       0.2
 7 C  py              2.5       0.2       1.2       0.0       1.7       5.6
 7 C  dz2             0.1       0.0       0.1       0.0       0.0       0.2
 7 C  dxz             0.1       0.0       0.0       0.1       0.0       0.1
 8 H  s               3.0       1.8       0.6       8.0       0.2       0.2
 9 C  s               0.1       0.4       1.6       0.1       0.1       0.8
 9 C  pz              0.8       0.9       3.8       3.1       0.1       2.0
 9 C  px              0.6       7.9       0.8       0.6       0.0      15.4
 9 C  py              0.4       2.6       2.4       0.5       3.3       1.0
 9 C  dz2             0.0       0.0       0.0       0.1       0.0       0.1
 9 C  dxz             0.0       0.0       0.0       0.1       0.0       0.1
 9 C  dyz             0.0       0.0       0.0       0.2       0.0       0.1
 9 C  dxy             0.0       0.0       0.1       0.0       0.0       0.1
10 H  s               0.5       4.2       4.3       0.0       0.5       7.3
11 O  s               0.7       1.0       1.0       0.0       0.1       0.0
11 O  pz              0.0       3.3       0.2       0.1       1.7       3.2
11 O  px              0.0       1.6       4.0       5.2       0.1       3.6
11 O  py              0.8       1.8       0.1       0.1       3.0       1.9
12 O  s               0.0       0.1       0.5       0.2       0.4       0.2
12 O  pz              0.2       0.4       0.8       2.9       1.3       1.4
12 O  px              0.0       1.8       0.3       0.6       0.2       2.8
12 O  py              1.0       0.4       2.4       8.3       0.0       3.8
13 O  s               0.9       0.0       0.2       0.9       0.1       0.1
13 O  pz              0.5       0.7       1.0       0.2       1.6       3.7
13 O  px              1.9       0.7       0.0       6.4       0.2       3.9
13 O  py              5.0       1.0       3.3       4.4       0.2       1.5
14 O  s               0.7       0.0       0.7       0.0       0.1       0.0
14 O  pz             11.9      11.8       2.6       2.5       0.6       1.9
14 O  px              5.0       0.5       3.5       0.0       0.0       0.0
14 O  py              0.3       1.1       0.6       1.9       0.4       0.0
15 O  s               0.0       0.5       0.5       0.4       0.3       0.3
15 O  pz              9.8       0.1       3.6       0.6       0.6       1.0
15 O  px              5.4       1.6       3.3       0.7       0.1       0.7
15 O  py              0.4       0.4       1.2       0.1       0.6       0.0
16 O  s               0.0       0.1       0.1       0.2       1.3       0.1
16 O  pz              0.2       0.6       1.3       0.0       5.8       3.3
16 O  px              0.1       0.0       0.0       0.1       0.8       0.1
16 O  py              1.4       0.4       0.0       0.4      22.8       0.5
16 O  dxy             0.0       0.0       0.0       0.0       0.1       0.0
17 H  s               0.5       0.1       0.5       0.2       0.0       1.0
18 H  s               0.0       1.8       2.9       0.4       2.8       2.7
19 H  s               0.3       0.0       0.4       3.1       0.0       1.2
20 H  s               1.6       0.1       0.8       2.7       0.2       1.8
21 H  s               4.8       3.0       1.6       0.8       0.2       0.4
22 H  s               4.8       0.4       2.0       0.0       0.1       0.0
23 H  s               0.5       0.2       0.2       0.1       8.1       0.7

                     30        31        32        33        34        35   
                  -0.40975  -0.39105  -0.38326  -0.36880  -0.36145  -0.35283
                   2.00000   2.00000   2.00000   2.00000   2.00000   2.00000
                  --------  --------  --------  --------  --------  --------
 0 C  s               0.1       0.1       0.3       0.1       0.2       0.0
 0 C  pz              0.5       9.3      10.4       2.2       0.0       0.4
 0 C  px              0.9       0.1       0.5       0.0       0.6       0.0
 0 C  py              2.2       0.0       2.2       0.1      29.4       1.9
 0 C  dxz             0.0       0.0       0.0       0.1       0.0       0.0
 0 C  dx2y2           0.0       0.0       0.0       0.1       0.2       0.0
 0 C  dxy             0.0       0.0       0.0       0.0       0.2       0.0
 1 C  s               0.3       0.0       0.0       0.8       0.1       0.2
 1 C  pz              1.0       1.8       0.6       4.9       3.5       1.2
 1 C  px              1.8       2.1       1.0       4.6       0.1       5.0
 1 C  py              1.0       3.0       5.3       0.1       2.0       0.2
 1 C  dz2             0.0       0.0       0.0       0.1       0.0       0.1
 1 C  dxz             0.1       0.0       0.0       0.0       0.2       0.0
 1 C  dyz             0.2       0.0       0.0       0.1       0.0       0.0
 1 C  dx2y2           0.0       0.1       0.0       0.0       0.1       0.1
 1 C  dxy             0.0       0.0       0.0       0.0       0.2       0.1
 2 H  s               2.3       0.0       0.0       3.0       1.1       4.2
 3 C  s               1.5       0.2       0.1       0.1       0.9       0.9
 3 C  pz             12.5       2.7       1.9       2.1       0.1       1.5
 3 C  px              0.1       1.5       3.0       4.5       0.1       5.6
 3 C  py              0.1       5.5       1.8       1.9       1.3       0.1
 3 C  dz2             0.2       0.0       0.0       0.0       0.0       0.0
 3 C  dyz             0.2       0.0       0.1       0.1       0.3       0.0
 3 C  dx2y2           0.0       0.0       0.1       0.2       0.0       0.0
 3 C  dxy             0.0       0.0       0.0       0.1       0.0       0.3
 4 H  s               3.4       3.1       0.0       5.7       0.2       5.1
 5 C  s               0.2       0.0       0.0       0.0       0.0       0.1
 5 C  pz              2.0       0.0       4.2       0.5       0.1       2.1
 5 C  px              4.1       0.2       2.1       0.7       0.7       1.3
 5 C  py              2.3       2.2      11.8       2.8       0.8       2.2
 5 C  dz2             0.1       0.0       0.0       0.1       0.0       0.0
 5 C  dxz             0.1       0.0       0.0       0.0       0.0       0.1
 5 C  dx2y2           0.1       0.1       0.2       0.0       0.0       0.0
 6 H  s               0.3       1.1       6.7       0.7       0.1       1.0
 7 C  s               0.1       0.1       0.5       0.1       0.0       0.0
 7 C  pz              0.9       0.1       0.1       0.0       0.1       0.3
 7 C  px             10.9       1.2       0.3       4.9       1.8       0.7
 7 C  py              0.0       9.3       0.7       0.6       0.0       0.2
 7 C  dxz             0.1       0.0       0.0       0.0       0.0       0.1
 7 C  dxy             0.0       0.0       0.0       0.1       0.0       0.1
 8 H  s               5.3       0.0       0.1       0.6       0.8       0.0
 9 C  s               0.4       0.1       0.0       0.3       0.0       0.1
 9 C  pz              0.3       0.3       0.0       0.1       0.0       0.5
 9 C  px              0.2       0.6       0.1       0.3       1.8       0.8
 9 C  py              0.5      14.8       2.1       0.0       0.1       2.0
 9 C  dz2             0.0       0.1       0.1       0.3       0.0       0.0
10 H  s               0.1       1.4       0.3       0.0       0.9       0.6
11 O  s               1.2       0.1       0.0       3.0       0.1       0.0
11 O  pz              0.3       1.8       0.7      17.8       0.0       0.4
11 O  px              0.3       0.1       1.3       0.3       3.3       4.1
11 O  py              0.1       0.7       5.6       4.8       0.1       0.0
12 O  s               0.1       0.4       1.2       1.6       0.1       1.3
12 O  pz              0.0       8.1       3.7       4.0       0.3       6.3
12 O  px              0.6       0.6       0.0       0.7       1.1       0.3
12 O  py              0.3       0.3       1.7       3.4       0.6       1.6
13 O  s               0.5       0.4       0.2       0.2       0.0       1.8
13 O  pz              3.0       6.5       0.9       2.1       0.4       6.2
13 O  px              0.7       0.8       0.1       3.5       0.3       0.4
13 O  py              0.0       0.1       1.1       0.7       0.1       2.3
14 O  s               0.0       0.4       1.2       0.0       0.0       3.8
14 O  pz              4.5       0.4       1.4       0.5       0.0       1.2
14 O  px              1.4       0.6       2.6       0.1       0.0      21.7
14 O  py              0.6       1.9       5.3       3.8       1.4       0.0
15 O  s               0.3       0.5       0.0       0.0       1.3       0.1
15 O  pz              7.9       1.2       0.4       2.3       0.7       3.0
15 O  px              9.0       0.0       1.0       0.1       1.3       0.3
15 O  py              0.0       4.7       1.0       0.4       4.8       0.1
16 O  s               0.0       0.1       0.8       0.9       0.6       0.2
16 O  pz              1.0       2.0       1.2       0.8       2.8       0.1
16 O  px              1.4       1.0       4.9       1.1      14.2       0.8
16 O  py              2.2       0.7       0.1       0.4       0.1       0.6
16 O  dx2y2           0.0       0.0       0.0       0.0       0.1       0.0
17 H  s               1.0       0.0       1.5       0.1      15.7       0.8
18 H  s               0.1       3.0       4.2       1.8       0.1       0.3
19 H  s               0.2       0.5       0.3       0.7       0.1       0.2
20 H  s               0.0       0.2       0.1       0.0       0.0       0.8
21 H  s               0.7       0.4       0.0       0.0       0.0       1.1
22 H  s               4.1       0.1       0.0       1.0       1.0       0.5
23 H  s               1.0       0.0       0.0       0.3       0.8       0.1

                     36        37        38        39        40        41   
                  -0.33825  -0.32450  -0.29838  -0.29305  -0.27352  -0.26368
                   2.00000   2.00000   2.00000   2.00000   2.00000   2.00000
                  --------  --------  --------  --------  --------  --------
 0 C  s               0.1       0.1       0.0       0.5       0.4       0.1
 0 C  pz              1.8       3.7       0.7       1.3       1.4       0.2
 0 C  px              0.2       0.3       0.2       0.4       2.9       0.5
 0 C  py              0.9       0.2       0.1       0.0       1.5       0.1
 0 C  dx2y2           0.0       0.0       0.0       0.2       0.5       0.0
 1 C  s               0.0       0.0       0.0       0.7       0.0       0.5
 1 C  pz              1.5       6.8       2.3       0.4       0.0       2.1
 1 C  px              1.2       1.5       1.2       0.0       0.0       0.3
 1 C  py              0.1       0.1       0.5       0.5       0.9       1.1
 1 C  dxz             0.0       0.2       0.1       0.2       0.0       0.1
 1 C  dx2y2           0.0       0.0       0.0       0.0       0.0       0.4
 1 C  dxy             0.1       0.0       0.0       0.0       0.1       0.0
 2 H  s               0.1       5.1       2.9       1.5       0.1       2.6
 3 C  s               0.5       0.0       0.1       0.1       0.1       0.0
 3 C  pz              0.5       0.0       1.6       1.3       0.3       0.1
 3 C  px              6.5       0.1       2.4       0.7       1.2       0.0
 3 C  py              0.3       0.7       0.8       0.9       1.4       3.4
 3 C  dxz             0.0       0.0       0.0       0.4       0.2       0.1
 3 C  dxy             0.1       0.0       0.0       0.0       0.0       0.0
 4 H  s               3.1       0.0       0.1       1.9       1.5       0.8
 5 C  s               0.2       0.1       0.2       1.2       0.2       0.3
 5 C  pz              0.0       0.5       0.1       1.7       0.5       0.2
 5 C  px              0.8       0.1       4.7       0.0       0.2       0.1
[...]
 3 C  dxz             0.2       0.0       0.0       0.8       0.4       0.1
 3 C  dyz             0.0       0.0       1.2       2.5       0.5       0.3
 3 C  dx2y2           0.0       0.0       0.1       0.0       0.0       0.1
 3 C  dxy             0.0       0.1       0.0       0.0       0.2       0.0
 5 C  s               0.6       0.0       0.8       0.2       0.7       0.0
 5 C  pz              0.8       0.0       0.9       0.4       1.4       0.1
 5 C  px              0.0       0.0       0.1       0.0       0.1       0.0
 5 C  dz2             2.2       0.1       3.7       0.3       2.7       0.0
 5 C  dxz             1.6       0.0       0.5       0.9       0.9       0.3
 5 C  dyz             0.0       0.0       0.2       0.1       0.7       0.0
 5 C  dx2y2           0.1       0.0       0.0       0.0       0.0       0.0
 7 C  s               1.3       0.1       0.0       0.1       0.9       0.0
 7 C  pz              1.0       0.1       0.0       0.2       1.6       0.1
 7 C  px              0.3       0.0       0.0       0.0       0.3       0.0
 7 C  py              0.1       0.0       0.0       0.1       0.3       0.1
 7 C  dz2             1.4       0.2       0.0       0.7       2.4       0.1
 7 C  dxz             3.5       0.2       0.1       0.2       1.5       0.0
 7 C  dyz             1.4       0.2       0.5       0.0       1.5       0.0
 7 C  dx2y2           0.0       0.0       0.1       0.2       0.0       0.0
 7 C  dxy             0.3       0.0       0.0       0.0       0.1       0.1
 9 C  s               0.6       0.0       0.2       1.6       0.3       1.2
 9 C  pz              0.7       0.2       1.0       0.7       0.6       0.8
 9 C  px              0.0       0.1       0.1       0.5       0.0       1.6
 9 C  py              0.1       0.0       0.1       0.4       0.3       0.0
 9 C  dz2             0.4       0.0       0.8       1.8       2.5       0.3
 9 C  dxz             0.1       0.2       0.7       0.1       0.0       3.3
 9 C  dyz             2.5       0.2       2.0       2.4       0.5       0.0
 9 C  dx2y2           0.4       0.4       0.2       0.1       0.0       2.4
11 O  s               0.0       0.0       0.6       0.0       0.0       0.0
11 O  pz              0.0       0.1       0.1       0.0       0.0       0.2
11 O  px              0.0       0.2       0.0       0.5       0.1       5.5
11 O  py              0.0       0.1       0.0       0.0       0.0       0.4
11 O  dz2             0.0       0.9       0.4       0.3       0.5       2.5
11 O  dxz             0.4       0.7       1.7       1.7       0.4      34.1
11 O  dyz             0.0       0.0       0.0       0.0       0.0       0.7
11 O  dx2y2           0.4       1.4       1.2       0.0       0.7       2.7
11 O  dxy             1.5       1.4       0.9       5.9       0.3      17.0
12 O  s               0.6       0.0       0.9       2.1       1.2       0.1
12 O  pz              0.6       0.1       0.6       0.8       0.4       0.1
12 O  py              0.3       0.0       0.4       0.9       0.6       0.0
12 O  dz2            10.0       1.3       8.3       8.3       3.4       0.4
12 O  dxz             0.1       0.0       0.0       0.0       0.2       0.1
12 O  dyz             5.0       0.5       6.0      11.8       7.2       0.2
12 O  dx2y2           0.0       0.0       0.1       0.2       0.6       0.1
13 O  s               1.7       0.2       0.0       0.3       3.2       0.1
13 O  pz              1.2       0.1       0.0       0.1       1.1       0.0
13 O  px              0.5       0.1       0.0       0.1       0.7       0.0
13 O  py              0.7       0.1       0.0       0.1       0.5       0.0
13 O  dz2            14.9       1.1       0.0       0.4       6.3       0.0
13 O  dxz             9.5       1.3       0.1       1.0      12.8       0.0
13 O  dyz             7.5       0.4       0.4       1.2       4.0       0.1
13 O  dx2y2           0.2       0.1       0.1       0.0       0.5       0.0
13 O  dxy             0.6       0.0       0.1       0.2       1.0       0.2
14 O  s               0.8       0.0       1.3       0.6       2.4       0.1
14 O  pz              1.2       0.0       1.4       0.4       1.7       0.1
14 O  dz2            11.3       0.4      10.6       4.7      13.8       0.6
14 O  dxz             3.7       0.2       8.2       0.3       5.8       0.0
14 O  dyz             2.5       0.0       1.1       0.1       0.2       0.0
14 O  dx2y2           0.1       0.0       0.0       0.0       0.2       0.0
14 O  dxy             0.1       0.0       0.1       0.0       0.0       0.0
15 O  s               0.0       0.1       1.6       2.7       0.4       0.7
15 O  pz              0.0       0.0       1.5       1.8       0.3       0.3
15 O  px              0.0       0.0       0.4       0.2       0.0       0.0
15 O  py              0.0       0.0       0.2       0.1       0.0       0.1
15 O  dz2             0.1       0.2      11.1      15.9       3.2       1.5
15 O  dxz             0.1       0.0       2.9       0.5       0.0       0.4
15 O  dyz             0.0       0.3      12.9      11.6       1.1       2.1
15 O  dx2y2           0.0       0.0       0.9       0.5       0.0       0.3
15 O  dxy             0.0       0.0       1.5       0.5       0.0       0.1
16 O  s               0.1       3.6       0.0       0.0       0.1       0.5
16 O  pz              0.0       0.4       0.0       0.0       0.0       0.1
16 O  px              0.1       1.9       0.0       0.0       0.1       0.2
16 O  py              0.1       1.6       0.0       0.0       0.0       0.1
16 O  dz2             0.4      10.7       0.1       0.1       0.4       0.4
16 O  dxz             0.1       4.8       0.0       0.0       0.0       1.4
16 O  dyz             0.0       0.4       0.0       0.0       0.0       0.1
16 O  dx2y2           0.5      15.3       0.1       0.0       0.3       1.6
16 O  dxy             1.2      29.0       0.4       0.2       0.7       1.2
19 H  s               0.2       0.0       0.1       0.2       0.1       0.0
20 H  s               0.4       0.0       0.0       0.0       0.2       0.0
21 H  s               0.2       0.0       0.2       0.0       0.2       0.0
22 H  s               0.0       0.0       0.3       0.3       0.0       0.0
23 H  s               0.0       0.7       0.0       0.0       0.0       0.0



                      *****************************
                      * MAYER POPULATION ANALYSIS *
                      *****************************

  NA   - Mulliken gross atomic population
  ZA   - Total nuclear charge
  QA   - Mulliken gross atomic charge
  VA   - Mayer's total valence
  BVA  - Mayer's bonded valence
  FA   - Mayer's free valence

  ATOM       NA         ZA         QA         VA         BVA        FA
  0 C      5.9948     6.0000     0.0052     3.9682     3.9682     0.0000
  1 C      5.9724     6.0000     0.0276     4.0228     4.0228    -0.0000
  2 H      0.9212     1.0000     0.0788     0.9754     0.9754    -0.0000
  3 C      5.9394     6.0000     0.0606     3.9960     3.9960    -0.0000
  4 H      0.9381     1.0000     0.0619     0.9947     0.9947    -0.0000
  5 C      5.9454     6.0000     0.0546     3.9980     3.9980     0.0000
  6 H      0.9454     1.0000     0.0546     0.9758     0.9758     0.0000
  7 C      6.0122     6.0000    -0.0122     3.9776     3.9776     0.0000
  8 H      0.9346     1.0000     0.0654     0.9780     0.9780    -0.0000
  9 C      5.7835     6.0000     0.2165     4.1402     4.1402    -0.0000
 10 H      0.9293     1.0000     0.0707     0.9762     0.9762    -0.0000
 11 O      8.3164     8.0000    -0.3164     2.1723     2.1723    -0.0000
 12 O      8.3940     8.0000    -0.3940     2.0519     2.0519     0.0000
 13 O      8.4128     8.0000    -0.4128     2.0286     2.0286    -0.0000
 14 O      8.4037     8.0000    -0.4037     2.0257     2.0257    -0.0000
 15 O      8.4314     8.0000    -0.4314     2.0176     2.0176    -0.0000
 16 O      8.4367     8.0000    -0.4367     2.0137     2.0137    -0.0000
 17 H      0.9277     1.0000     0.0723     0.9590     0.9590    -0.0000
 18 H      0.8883     1.0000     0.1117     1.0134     1.0134     0.0000
 19 H      0.6930     1.0000     0.3070     0.8900     0.8900    -0.0000
 20 H      0.6886     1.0000     0.3114     0.8799     0.8799     0.0000
 21 H      0.6939     1.0000     0.3061     0.8826     0.8826    -0.0000
 22 H      0.7007     1.0000     0.2993     0.9278     0.9278    -0.0000
 23 H      0.6965     1.0000     0.3035     0.8893     0.8893     0.0000

  Mayer bond orders larger than 0.100000
B(  0-C ,  1-C ) :   1.0221 B(  0-C , 16-O ) :   1.0751 B(  0-C , 17-H ) :   0.9163 
B(  0-C , 18-H ) :   0.8967 B(  1-C ,  2-H ) :   0.8928 B(  1-C ,  3-C ) :   1.0221 
B(  1-C , 11-O ) :   0.9659 B(  3-C ,  4-H ) :   0.8839 B(  3-C ,  5-C ) :   0.9685 
B(  3-C , 15-O ) :   1.0628 B(  5-C ,  6-H ) :   0.9016 B(  5-C ,  7-C ) :   0.9629 
B(  5-C , 14-O ) :   1.0650 B(  7-C ,  8-H ) :   0.8920 B(  7-C ,  9-C ) :   0.9877 
B(  7-C , 13-O ) :   1.0439 B(  9-C , 10-H ) :   0.9020 B(  9-C , 11-O ) :   1.0798 
B(  9-C , 12-O ) :   1.1222 B( 12-O , 19-H ) :   0.8362 B( 13-O , 20-H ) :   0.8397 
B( 14-O , 21-H ) :   0.8403 B( 15-O , 22-H ) :   0.8213 B( 16-O , 23-H ) :   0.8452 


-------
TIMINGS
-------

Total SCF time: 0 days 0 hours 0 min 9 sec 

Total time                  ....       9.373 sec
Sum of individual times     ....       8.987 sec  ( 95.9%)

SCF preparation             ....       0.158 sec  (  1.7%)
Fock matrix formation       ....       8.118 sec  ( 86.6%)
  Startup                   ....       0.051 sec  (  0.6% of F)
  Split-RI-J                ....       3.627 sec  ( 44.7% of F)
  XC integration            ....       4.041 sec  ( 49.8% of F)
    Basis function eval.    ....       1.351 sec  ( 33.4% of XC)
    Density eval.           ....       0.784 sec  ( 19.4% of XC)
    XC-Functional eval.     ....       0.273 sec  (  6.7% of XC)
    XC-Potential eval.      ....       1.027 sec  ( 25.4% of XC)
Diagonalization             ....       0.000 sec  (  0.0%)
Density matrix formation    ....       0.157 sec  (  1.7%)
Total Energy calculation    ....       0.027 sec  (  0.3%)
Population analysis         ....       0.101 sec  (  1.1%)
Orbital Transformation      ....       0.053 sec  (  0.6%)
Orbital Orthonormalization  ....       0.000 sec  (  0.0%)
DIIS solution               ....       0.294 sec  (  3.1%)
  MO trafo                  ....       0.000 sec  (  0.0 % of DIIS)
  Orb grad                  ....       0.000 sec  (  0.0 % of DIIS)
  Energy W gradient         ....       0.000 sec  (  0.0 % of DIIS)
  DIIS error                ....       0.006 sec  (  1.9 % of DIIS)
  DIIS work                 ....       0.245 sec  ( 83.1 % of DIIS)
  Form Q                    ....       0.000 sec  (  0.0 % of DIIS)
  Form QpQm                 ....       0.000 sec  (  0.0 % of DIIS)
  Exp/Cayley                ....       0.000 sec  (  0.0 % of DIIS)
  Orb update                ....       0.000 sec  (  0.0 % of DIIS)
  Wake-sleep                ....       0.015 sec  (  4.9 % of DIIS)
SOSCF solution              ....       0.079 sec  (  0.8%)
  MO trafo                  ....       0.044 sec  ( 55.9 % of SOSCF)
  Orb grad                  ....       0.001 sec  (  1.4 % of SOSCF)
  Rot update                ....       0.016 sec  ( 20.3 % of SOSCF)
  Step                      ....       0.018 sec  ( 22.3 % of SOSCF)
Finished LeanSCF after   9.5 sec

Maximum memory used throughout the entire LEANSCF-calculation: 18.6 MB


-------------------------------------------------------------------------------
                          DFT DISPERSION CORRECTION                            
                                                                               
                                DFTD4 V3.4.0                                   
-------------------------------------------------------------------------------
The PBE functional is recognized
Active option DFTDOPT                   ...         5   

-------------------------   ----------------
Dispersion correction           -0.025969288
-------------------------   ----------------

------------------   -----------------
gCP correction             0.156965239
------------------   -----------------

-------------------------   --------------------
FINAL SINGLE POINT ENERGY      -685.693059771309
-------------------------   --------------------


------------------------------------------------------------------------------
                              ORCA PROPERTY CALCULATIONS
------------------------------------------------------------------------------

GBWName                                 ... sp.gbw
Number of atoms                         ...     24
Number of basis functions               ...    192
Max core memory                         ...   1024 MB

Electric properties:
Dipole moment                           ... YES
Quadrupole moment                       ...  NO
Static polarizability (Dipole/Dipole)   ...  NO
Static polarizability (Dipole/Quad.)    ...  NO
Static polarizability (Quad./Quad.)     ...  NO
Static polarizability (Velocity)        ...  NO

Atomic electric properties:
Dipole moment                           ...  NO
Quadrupole moment                       ...  NO
Static polarizability                   ...  NO

Choice of electric origin               ... Center of mass
Position of electric origin             ...     0.000001     0.000001    -0.000003

General magnetic properties:
Magnetizability                         ...  NO

EPR properties:
g-Tensor (aka g-matrix)                 ...  NO
Zero-Field splitting spin-orbit         ...  NO
Zero-field splitting spin-spin          ...  NO
Hyperfine couplings                     ...  NO (   0 nuclei)
Quadrupole couplings                    ...  NO (   0 nuclei)
Contact density                         ...  NO (   0 nuclei)

NMR properties:
Chemical shifts                         ...  NO (   0 nuclei)
Spin-rotation constants                 ...  NO (   0 nuclei)
Spin-spin couplings                     ...  NO (   0 nuclei,    0 pairs)

Choice of magnetic origin               ... GIAO
Position of magnetic origin             ...     0.000000     0.000000     0.000000

Properties with geometric perturbations:
SCF Hessian                             ...  NO
IR spectrum                             ...  NO
VCD spectrum                            ...  NO
X-ray spectroscopy properties:
SCF XES/XAS/RIXS spectra                ...  NO


-------------
DIPOLE MOMENT
-------------

Method             : SCF
Type of density    : Electron Density
Multiplicity       :   1
Irrep              :   0
Energy             :  -685.8240557229941032 Eh
Relativity type    : 
Basis              : AO
                                X                 Y                 Z
Electronic contribution:      0.853214650      -0.236309841       1.464350779
Nuclear contribution   :      0.757428076       0.527089931      -2.306991576
                        -----------------------------------------
Total Dipole Moment    :      1.610642726       0.290780090      -0.842640797
                        -----------------------------------------
Magnitude (a.u.)       :      1.840860279
Magnitude (Debye)      :      4.679094975



--------------------
Rotational spectrum 
--------------------
 
Rotational constants in cm-1:             0.040638             0.028870             0.025096 
Rotational constants in MHz :          1218.298045           865.515057           752.352597 

Dipole components along the rotational axes: 
x,y,z [a.u.] :     1.293721     0.662680    -1.129561 
x,y,z [Debye]:     3.288378     1.684399    -2.871115 

 

Dipole moment calculation done in   0.0 sec 

Maximum memory used throughout the entire PROP-calculation: 12.2 MB

--------------------------------
SUGGESTED CITATIONS FOR THIS RUN
--------------------------------

Below you find a list of papers that are relevant to this ORCA run
We neither can nor want to force you to cite these papers, but we appreciate if you do
You receive ORCA, which is the product of decades of hard work by many enthusiastic individuals, for free
The only thing we kindly ask in return is that you cite our papers,
We deeply appreciate it, if you show your appreciation for ORCA by not just citing the generic ORCA reference.

Please note that relegating all ORCA citations to the supporting information does *not* help us.
SI sections are not indexed - citations you put there will not count into any citation statistics
But we need these citations in order to attract the funding resources that allow us to do what we are doing

Therefore, if you are a happy ORCA user, please consider citing a few of the papers listed below in the main body of your paper

In addition to the list printed below, the program has created the file sp.bibtex that contains the list in bibtex format
You can import this file easily into all common literature databanks and citation aid programs


List of essential papers. We consider these as the minimum necessary citations

  1. Neese,F.
     Software update: the ORCA program system, version 5.0
     WIRES Comput. Molec. Sci., 2022 12(1)e1606
     doi.org/10.1002/wcms.1606

List of papers to cite with high priority. The work reported in these papers was absolutely
necessary for this run to complete.
Our perspective: the developers of density functionals and basis sets usually get cited in chemistry papers
Good! But without the algorithms to do something with them, the functionals or basis sets would not do anything.
Hence, in our opinion, the algorithm design and method developments papers are equally worthy of getting cited

  1. Neese,F.
     An improvement of the resolution of the identity approximation for the formation of the Coulomb matrix
     J. Comp. Chem., 2003 24(14)1740-1747
     doi.org/10.1002/jcc.10318
  2. Neese,F.
     The SHARK Integral Generation and Digestion System
     J. Comp. Chem., 2022  1-16
     doi.org/10.1002/jcc.26942
  3. Caldeweyher,E.; Bannwarth,C.; Grimme,S.
     Extension of the D3 dispersion coefficient model
     J. Chem. Phys., 2017 147 034112-XXXX
     doi.org/10.1063/1.4993215
  4. Caldeweyher,E.; Ehlert,S.; Hansen,A.; Neugebauer,H.; Spicher,S.; Bannwarth,C.; Grimme,S.
     A generally applicable atomic-charge dependent London dispersion correction
     J. Chem. Phys., 2019 150 154122-XXXX
     doi.org/10.1063/1.5090222
  5. Caldeweyher,E.; Mewes,J.; Ehlert,S.; Grimme,S.
     Extension and evaluation of the D4 London-dispersion model for periodic systems
     Phys. Chem. Chem. Phys., 2020 22(16)8499-8512
     doi.org/10.1039/D0CP00502A

List of suggested additional citations. These are papers that are important in the 'surrounding' of 
of this run, or papers that preceded the highly important papers. If you like your results we are grateful for a citation.

  1. Neese,F.
     The ORCA program system
     WIRES Comput. Molec. Sci., 2012 2(1)73-78
     doi.org/10.1002/wcms.81
  2. Neese,F.
     Software update: the ORCA program system, version 4.0
     WIRES Comput. Molec. Sci., 2018 8(1)1-6
     doi.org/10.1002/wcms.1327
  3. Neese,F.; Wennmohs,F.; Becker,U.; Riplinger,C.
     The ORCA quantum chemistry program package
     J. Chem. Phys., 2020 152 Art. No. L224108
     doi.org/10.1063/5.0004608

List of optional additional citations

  1. Neese,F.
     Approximate second-order SCF convergence for spin unrestricted wavefunctions
     Chem. Phys. Lett., 2000 325(1-3)93-98
     doi.org/10.1016/s0009-2614(00)00662-x

Timings for individual modules:

Sum of individual times          ...       11.521 sec (=   0.192 min)
Startup calculation              ...        0.928 sec (=   0.015 min)   8.1 %
SCF iterations                   ...       10.495 sec (=   0.175 min)  91.1 %
Property calculations            ...        0.098 sec (=   0.002 min)   0.9 %
                             ****ORCA TERMINATED NORMALLY****
TOTAL RUN TIME: 0 days 0 hours 0 minutes 12 seconds 197 msec
