
                                 *****************
                                 * O   R   C   A *
                                 *****************

                                            #,                                       
                                            ###                                      
                                            ####                                     
                                            #####                                    
                                            ######                                   
                                           ########,                                 
                                     ,,################,,,,,                         
                               ,,#################################,,                 
                          ,,##########################################,,             
                       ,#########################################, ''#####,          
                    ,#############################################,,   '####,        
                  ,##################################################,,,,####,       
                ,###########''''           ''''###############################       
              ,#####''   ,,,,##########,,,,          '''####'''          '####       
            ,##' ,,,,###########################,,,                        '##       
           ' ,,###''''                  '''############,,,                           
         ,,##''                                '''############,,,,        ,,,,,,###''
      ,#''                                            '''#######################'''  
     '                                                          ''''####''''         
             ,#######,   #######,   ,#######,      ##                                
            ,#'     '#,  ##    ##  ,#'     '#,    #''#        ,####,   ,####,        
            ##       ##  ##   ,#'  ##            #'  '#       #'       #'  '#        
            ##       ##  #######   ##           ,######,      #####,   #    #        
            '#,     ,#'  ##    ##  '#,     ,#' ,#      #,     #,   #   #,  ,#        
             '#######'   ##     ##  '#######'  #'      '#     '####' # '####'        



                #########################################################
                #                        -***-                          #
                #          Department of theory and spectroscopy        #
                #                                                       #
                #                      Frank Neese                      #
                #                                                       #
                #     Directorship, Architecture, Infrastructure        #
                #                    SHARK, DRIVERS                     #
                #        Core code/Algorithms in most modules           #
                #                                                       #
                #        Max Planck Institute fuer Kohlenforschung      #
                #                Kaiser Wilhelm Platz 1                 #
                #                 D-45470 Muelheim/Ruhr                 #
                #                      Germany                          #
                #                                                       #
                #                  All rights reserved                  #
                #                        -***-                          #
                #########################################################


                         Program Version 6.0.0  -   RELEASE  -


 With contributions from (in alphabetic order):
   Daniel Aravena         : Magnetic Suceptibility
   Michael Atanasov       : Ab Initio Ligand Field Theory (pilot matlab implementation)
   Alexander A. Auer      : GIAO ZORA, VPT2 properties, NMR spectrum
   Ute Becker             : All parallelization in ORCA, NUMFREQ, NUMCALC
   Giovanni Bistoni       : ED, misc. LED, open-shell LED, HFLD
   Martin Brehm           : Molecular dynamics
   Dmytro Bykov           : pre 5.0 version of the SCF Hessian
   Marcos Casanova-Páez   : Triplet and SCS-CIS(D). UHF-(DLPNO)-IP/EA/STEOM-CCSD. UHF-CVS-IP/STEOM-CCSD
   Vijay G. Chilkuri      : MRCI spin determinant printing, contributions to CSF-ICE
   Pauline Colinet        : FMM embedding
   Dipayan Datta          : RHF DLPNO-CCSD density
   Achintya Kumar Dutta   : EOM-CC, STEOM-CC
   Nicolas Foglia         : Exact transition moments, OPA infrastructure, MCD improvements
   Dmitry Ganyushin       : Spin-Orbit,Spin-Spin,Magnetic field MRCI
   Miquel Garcia          : C-PCM and meta-GGA Hessian, CCSD/C-PCM, Gaussian charge scheme
   Tiago L. C. Gouveia    : GS-ROHF, GS-ROCIS
   Yang Guo               : DLPNO-NEVPT2, F12-NEVPT2, CIM, IAO-localization
   Andreas Hansen         : Spin unrestricted coupled pair/coupled cluster methods
   Ingolf Harden          : AUTO-CI MPn and infrastructure 
   Benjamin Helmich-Paris : MC-RPA, TRAH-(SCF,CASSCF), AVAS, COSX integrals, SCF dyn. polar.
   Lee Huntington         : MR-EOM, pCC
   Robert Izsak           : Overlap fitted RIJCOSX, COSX-SCS-MP3, EOM
   Riya Kayal             : Wick's Theorem for AUTO-CI, AUTO-CI UHF-CCSDT
   Emily Kempfer          : AUTO-CI, RHF CISDT and CCSDT
   Christian Kollmar      : KDIIS, OOCD, Brueckner-CCSD(T), CCSD density, CASPT2, CASPT2-K, improved NEVPT2
   Axel Koslowski         : Symmetry handling
   Simone Kossmann        : Meta GGA functionals, TD-DFT gradient, OOMP2, (MP2 Hessian; deprecated post 5.0)
   Lucas Lang             : DCDCAS
   Marvin Lechner         : AUTO-CI (C++ implementation), FIC-MRCC
   Spencer Leger          : CASSCF response
   Dagmar Lenk            : GEPOL surface, SMD, ORCA-2-JSON
   Dimitrios Liakos       : Extrapolation schemes; Compound Job, initial MDCI parallelization
   Dimitrios Manganas     : Further ROCIS development; embedding schemes. LFT, Crystal Embedding
   Dimitrios Pantazis     : SARC Basis sets
   Anastasios Papadopoulos: AUTO-CI, single reference methods and gradients
   Taras Petrenko         : pre 6.0 DFT Hessian and TD-DFT gradient, (ASA, deprecated), ECA, 1-Electron XAS/XES, NRVS
   Peter Pinski           : DLPNO-MP2, DLPNO-MP2 Gradient
   Christoph Reimann      : Effective Core Potentials
   Marius Retegan         : Local ZFS, SOC
   Christoph Riplinger    : Optimizer, TS searches, QM/MM, DLPNO-CCSD(T), (RO)-DLPNO pert. Triples
   Michael Roemelt        : Original ROCIS implementation
   Masaaki Saitow         : Open-shell DLPNO-CCSD energy and density
   Barbara Sandhoefer     : DKH picture change effects
   Kantharuban Sivalingam : CASSCF convergence/infrastructure, NEVPT2 and variants, FIC-MRCI
   Bernardo de Souza      : ESD, SOC TD-DFT
   Georgi Stoychev        : AutoAux, RI-MP2 NMR, DLPNO-MP2 response, X2C
   Van Anh Tran           : RI-MP2 g-tensors
   Willem Van den Heuvel  : Paramagnetic NMR
   Zikuan Wang            : NOTCH, Electric field optimization 
   Frank Wennmohs         : Technical directorship and infrastructure
   Hang Xu                : AUTO-CI-Response properties 


 We gratefully acknowledge several colleagues who have allowed us to
 interface, adapt or use parts of their codes:
   Stefan Grimme, W. Hujo, H. Kruse, P. Pracht,  : VdW corrections, initial TS optimization,
                  C. Bannwarth, S. Ehlert,         DFT functionals, gCP, sTDA/sTD-DF
                  L. Wittmann, M. Mueller
   Ed Valeev, F. Pavosevic, A. Kumar             : LibInt (2-el integral package), F12 methods
   Garnet Chan, S. Sharma, J. Yang, R. Olivares  : DMRG
   Ulf Ekstrom                                   : XCFun DFT Library
   Mihaly Kallay                                 : mrcc  (arbitrary order and MRCC methods)
   Frank Weinhold                                : gennbo (NPA and NBO analysis)
   Simon Mueller                                 : openCOSMO-RS
   Christopher J. Cramer and Donald G. Truhlar   : smd solvation model
   Lars Goerigk                                  : TD-DFT with DH, B97 family of functionals
   V. Asgeirsson, H. Jonsson                     : NEB implementation
   FAccTs GmbH                                   : IRC, NEB, NEB-TS, DLPNO-Multilevel, CI-OPT
                                                   MM, QMMM, 2- and 3-layer-ONIOM, Crystal-QMMM,
                                                   LR-CPCM, SF, NACMEs, symmetry and pop. for TD-DFT,
                                                   nearIR, NL-DFT gradient (VV10), updates on ESD,
                                                   ML-optimized integration grids, MBIS, APM,
                                                   GOAT, DOCKER, SOLVATOR, interface openCOSMO-RS
   S Lehtola, MJT Oliveira, MAL Marques          : LibXC Library
   Liviu Ungur et al                             : ANISO software


 Your calculation uses the libint2 library for the computation of 2-el integrals
 For citations please refer to: http://libint.valeyev.net

 Your ORCA version has been built with support for libXC version: 6.2.2
 For citations please refer to: https://libxc.gitlab.io

 This ORCA versions uses:
   CBLAS   interface :  Fast vector & matrix operations
   LAPACKE interface :  Fast linear algebra routines
   SCALAPACK package :  Parallel linear algebra routines
   Shared memory     :  Shared parallel matrices
   BLAS/LAPACK       :  OpenBLAS 0.3.27  USE64BITINT DYNAMIC_ARCH NO_AFFINITY SkylakeX SINGLE_THREADED
        Core in use  :  SkylakeX
   Copyright (c) 2011-2014, The OpenBLAS Project


Your calculation utilizes the geometrical counterpoise correction gCP
Please cite in your paper:
H.Kruse, S. Grimme J.Chem.Phys., 136, (2012), 154101 
   

Your calculation utilizes the DFT-NL dispersion correction.
Cite in your paper:
Vydrov, O. A.; Van Voorhis, T. J. Chem. Phys. 2010, 133, 244103
Hujo, W.; Grimme, S. J. Chem. Theory Comput. 2011, 7, 3866 
   

================================================================================

----- Orbital basis set information -----
Your calculation utilizes the basis: def2-TZVP
   F. Weigend and R. Ahlrichs, Phys. Chem. Chem. Phys. 7, 3297 (2005).

----- AuxJ basis set information -----
Your calculation utilizes the auxiliary basis: def2/J
   F. Weigend, Phys. Chem. Chem. Phys. 8, 1057 (2006).

================================================================================
                                        WARNINGS
                       Please study these warnings very carefully!
================================================================================


================================================================================
                                       INPUT FILE
================================================================================
NAME = sp_gas.inp
|  1> ! wb97x-v def2-tzvp def2/J RIJCOSX DEFGRID2 scfconv7 GCP(DFT/TZ) printgap
|  2> %output
|  3>     printlevel normal
|  4> end
|  5> * xyz 0 1
|  6> C 1.338092775903727 -1.1583678355342346 0.32456534706913936
|  7> C 0.4588723496072984 -0.16448557068119796 -0.45077131083731736
|  8> C 0.8899784055618498 1.2727838622749441 -0.17843877656327353
|  9> C -0.9889291699718606 -0.43496943031237334 -0.14968672187618148
| 10> C -1.8833608150447856 0.4306754550470771 0.32682199814782775
| 11> H 1.2436986504068253 -0.9905731963320704 1.4034384569367513
| 12> H 2.390936571205583 -1.0364343045444595 0.04999317832263748
| 13> H 1.0486612123379166 -2.193324136429645 0.114549328958812
| 14> H 0.6039172536141446 -0.37381161726368073 -1.5217659633323177
| 15> H 0.76584355128379 1.524292954420856 0.8810367413734816
| 16> H 1.9462009441129489 1.4043478930750402 -0.43212688865039117
| 17> H 0.3094274286020126 1.9899523747122794 -0.7677067519807413
| 18> H -1.3073911920865569 -1.4611097062459741 -0.33917456782399424
| 19> H -2.9075937053647345 0.12219721273337673 0.5189533452424058
| 20> H -1.6349260001188346 1.4667715120375873 0.5392794232365511
| 21> *
| 22> 
| 23>                          ****END OF INPUT****
================================================================================

                       ****************************
                       * Single Point Calculation *
                       ****************************

---------------------------------
CARTESIAN COORDINATES (ANGSTROEM)
---------------------------------
  C      1.338093   -1.158368    0.324565
  C      0.458872   -0.164486   -0.450771
  C      0.889978    1.272784   -0.178439
  C     -0.988929   -0.434969   -0.149687
  C     -1.883361    0.430675    0.326822
  H      1.243699   -0.990573    1.403438
  H      2.390937   -1.036434    0.049993
  H      1.048661   -2.193324    0.114549
  H      0.603917   -0.373812   -1.521766
  H      0.765844    1.524293    0.881037
  H      1.946201    1.404348   -0.432127
  H      0.309427    1.989952   -0.767707
  H     -1.307391   -1.461110   -0.339175
  H     -2.907594    0.122197    0.518953
  H     -1.634926    1.466772    0.539279

----------------------------
CARTESIAN COORDINATES (A.U.)
----------------------------
  NO LB      ZA    FRAG     MASS         X           Y           Z
   0 C     6.0000    0    12.011    2.528629   -2.188998    0.613340
   1 C     6.0000    0    12.011    0.867143   -0.310833   -0.851834
   2 C     6.0000    0    12.011    1.681815    2.405213   -0.337200
   3 C     6.0000    0    12.011   -1.868805   -0.821973   -0.282867
   4 C     6.0000    0    12.011   -3.559036    0.813859    0.617604
   5 H     1.0000    0     1.008    2.350250   -1.871912    2.652114
   6 H     1.0000    0     1.008    4.518215   -1.958577    0.094473
   7 H     1.0000    0     1.008    1.981682   -4.144782    0.216467
   8 H     1.0000    0     1.008    1.141238   -0.706402   -2.875721
   9 H     1.0000    0     1.008    1.447235    2.880496    1.664918
  10 H     1.0000    0     1.008    3.677787    2.653833   -0.816601
  11 H     1.0000    0     1.008    0.584733    3.760465   -1.450756
  12 H     1.0000    0     1.008   -2.470611   -2.761097   -0.640947
  13 H     1.0000    0     1.008   -5.494556    0.230919    0.980680
  14 H     1.0000    0     1.008   -3.089562    2.771796    1.019090

--------------------------------
INTERNAL COORDINATES (ANGSTROEM)
--------------------------------
 C      0   0   0     0.000000000000     0.00000000     0.00000000
 C      1   0   0     1.536872619152     0.00000000     0.00000000
 C      2   1   0     1.525044544797   110.95673412     0.00000000
 C      2   1   3     1.503310576071   109.48525022   233.36285589
 C      4   2   1     1.332820166232   126.94501168   124.16156930
 H      1   2   3     1.095916273749   110.38672741    61.30213162
 H      1   2   3     1.094868813665   110.58448881   301.57505103
 H      1   2   3     1.094994019442   111.30051848   181.35060023
 H      2   1   3     1.100856468223   107.00541143   118.07585386
 H      3   2   1     1.095972015421   110.90904953   297.44990096
 H      3   2   1     1.094199617692   110.16887486    56.73454328
 H      3   2   1     1.094809051357   111.79854617   176.77809985
 H      4   2   1     1.091003010621   114.55480066   305.03463468
 H      5   4   2     1.086796344367   120.75072883   180.69189024
 H      5   4   2     1.086440543267   122.40130778     0.83213939

---------------------------
INTERNAL COORDINATES (A.U.)
---------------------------
 C      0   0   0     0.000000000000     0.00000000     0.00000000
 C      1   0   0     2.904268352920     0.00000000     0.00000000
 C      2   1   0     2.881916531697   110.95673412     0.00000000
 C      2   1   3     2.840845283001   109.48525022   233.36285589
 C      4   2   1     2.518665099947   126.94501168   124.16156930
 H      1   2   3     2.070981623094   110.38672741    61.30213162
 H      1   2   3     2.069002210397   110.58448881   301.57505103
 H      1   2   3     2.069238815027   111.30051848   181.35060023
 H      2   1   3     2.080317237698   107.00541143   118.07585386
 H      3   2   1     2.071086959587   110.90904953   297.44990096
 H      3   2   1     2.067737613280   110.16887486    56.73454328
 H      3   2   1     2.068889276003   111.79854617   176.77809985
 H      4   2   1     2.061696901358   114.55480066   305.03463468
 H      5   4   2     2.053747454201   120.75072883   180.69189024
 H      5   4   2     2.053075087563   122.40130778     0.83213939

---------------------
BASIS SET INFORMATION
---------------------
There are 2 groups of distinct atoms

 Group   1 Type C   : 11s6p2d1f contracted to 5s3p2d1f pattern {62111/411/11/1}
 Group   2 Type H   : 5s1p contracted to 3s1p pattern {311/1}

Atom   0C    basis set group =>   1
Atom   1C    basis set group =>   1
Atom   2C    basis set group =>   1
Atom   3C    basis set group =>   1
Atom   4C    basis set group =>   1
Atom   5H    basis set group =>   2
Atom   6H    basis set group =>   2
Atom   7H    basis set group =>   2
Atom   8H    basis set group =>   2
Atom   9H    basis set group =>   2
Atom  10H    basis set group =>   2
Atom  11H    basis set group =>   2
Atom  12H    basis set group =>   2
Atom  13H    basis set group =>   2
Atom  14H    basis set group =>   2
---------------------------------
AUXILIARY/J BASIS SET INFORMATION
---------------------------------
There are 2 groups of distinct atoms

 Group   1 Type C   : 12s5p4d2f1g contracted to 6s4p3d1f1g pattern {711111/2111/211/2/1}
 Group   2 Type H   : 5s2p1d contracted to 3s1p1d pattern {311/2/1}

Atom   0C    basis set group =>   1
Atom   1C    basis set group =>   1
Atom   2C    basis set group =>   1
Atom   3C    basis set group =>   1
Atom   4C    basis set group =>   1
Atom   5H    basis set group =>   2
Atom   6H    basis set group =>   2
Atom   7H    basis set group =>   2
Atom   8H    basis set group =>   2
Atom   9H    basis set group =>   2
Atom  10H    basis set group =>   2
Atom  11H    basis set group =>   2
Atom  12H    basis set group =>   2
Atom  13H    basis set group =>   2
Atom  14H    basis set group =>   2

Checking for AutoStart:
The File: sp_gas.gbw exists
Trying to determine its content:
     ... Fine, the file contains calculation information
     ... Fine, the calculation information was read
     ... Fine, the file contains a basis set
     ... Fine, the basis set was read
     ... Fine, the file contains a geometry
     ... Fine, the geometry was read
     ... Fine, the file contains a set of orbitals
     ... Fine, the orbitals can be read
     => possible old guess file was deleted
     => GBW file was renamed to GES file
     => GES file is set as startup file
     => Guess is set to MORead
     ... now leaving AutoStart

------------------------------------------------------------------------------
                             ORCA STARTUP CALCULATIONS
                           -- RI-GTO INTEGRALS CHOSEN --
------------------------------------------------------------------------------
------------------------------------------------------------------------------
                   ___                                                        
                  /   \      - P O W E R E D   B Y -                         
                 /     \                                                     
                 |  |  |   _    _      __       _____    __    __             
                 |  |  |  | |  | |    /  \     |  _  \  |  |  /  |          
                  \  \/   | |  | |   /    \    | | | |  |  | /  /          
                 / \  \   | |__| |  /  /\  \   | |_| |  |  |/  /          
                |  |  |   |  __  | /  /__\  \  |    /   |      \           
                |  |  |   | |  | | |   __   |  |    \   |  |\   \          
                \     /   | |  | | |  |  |  |  | |\  \  |  | \   \       
                 \___/    |_|  |_| |__|  |__|  |_| \__\ |__|  \__/        
                                                                              
                      - O R C A' S   B I G   F R I E N D -                    
                                      &                                       
                       - I N T E G R A L  F E E D E R -                       
                                                                              
 v1 FN, 2020, v2 2021, v3 2022-2024                                           
------------------------------------------------------------------------------


----------------------
SHARK INTEGRAL PACKAGE
----------------------

Number of atoms                             ...     15
Number of basis functions                   ...    215
Number of shells                            ...     95
Maximum angular momentum                    ...      3
Integral batch strategy                     ... SHARK/LIBINT Hybrid
RI-J (if used) integral strategy            ... SPLIT-RIJ (Revised 2003 algorithm where possible)
Printlevel                                  ...      1
Contraction scheme used                     ... SEGMENTED contraction
Prescreening option                         ... SCHWARTZ
   Thresh                                   ... 3.000e-11
   Tcut                                     ... 1.000e-12
   Tpresel                                  ... 1.000e-12 
Coulomb Range Separation                    ... NOT USED
Exchange Range Separation                   ... Long Range
   Mu parameter                             ... 3.000e-01
   Scaling (regular/separated)              ... 1.670e-01 8.330e-01
Multipole approximations                    ... NOT USED
Finite Nucleus Model                        ... NOT USED
CABS basis                                  ... NOT available
Auxiliary Coulomb fitting basis             ... AVAILABLE
   # of basis functions in Aux-J            ...    355
   # of shells in Aux-J                     ...    125
   Maximum angular momentum in Aux-J        ...      4
Auxiliary J/K fitting basis                 ... NOT available
Auxiliary Correlation fitting basis         ... NOT available
Auxiliary 'external' fitting basis          ... NOT available

Checking pre-screening integrals            ... done (  0.0 sec) Dimension = 95
Check shell pair data                       ... done (  0.0 sec)
Shell pair information
Shell pair cut-off parameter TPreSel        ...   1.0e-12
Total number of shell pairs                 ...      4560
Shell pairs after pre-screening             ...      4409
Total number of primitive shell pairs       ...     13020
Primitive shell pairs kept                  ...     10102
          la=0 lb=0:   1450 shell pairs
          la=1 lb=0:   1334 shell pairs
          la=1 lb=1:    322 shell pairs
          la=2 lb=0:    538 shell pairs
          la=2 lb=1:    249 shell pairs
          la=2 lb=2:     55 shell pairs
          la=3 lb=0:    271 shell pairs
          la=3 lb=1:    125 shell pairs
          la=3 lb=2:     50 shell pairs
          la=3 lb=3:     15 shell pairs

Calculating one electron integrals          ... done (  0.0 sec)
Calculating RI/J V-Matrix + Cholesky decomp.... done (  0.0 sec)
Calculating Nuclear repulsion               ... done (  0.0 sec) ENN=    177.011121244434 Eh

Diagonalization of the overlap matrix:
Smallest eigenvalue                        ... 1.460e-04
Time for diagonalization                   ...    0.003 sec
Threshold for overlap eigenvalues          ... 1.000e-07
Number of eigenvalues below threshold      ... 0
Time for construction of square roots      ...    0.016 sec
Total time needed                          ...    0.028 sec

-------------------
DFT GRID GENERATION
-------------------

General Integration Accuracy     IntAcc      ... 4.388
Radial Grid Type                 RadialGrid  ... OptM3 with GC (2021)
Angular Grid (max. ang.)         AngularGrid ... 4 (Lebedev-302)
Angular grid pruning method      GridPruning ... 4 (adaptive)
Weight generation scheme         WeightScheme... mBecke (2022)
Basis function cutoff            BFCut       ... 1.0000e-11
Integration weight cutoff        WCut        ... 1.0000e-14
Partially contracted basis set               ... off
Rotationally invariant grid construction     ... off
Angular grids for H and He will be reduced by one unit

Total number of grid points                  ...    62311
Total number of batches                      ...      981
Average number of points per batch           ...       63
Average number of grid points per atom       ...     4154

--------------------
COSX GRID GENERATION
--------------------

GRIDX 1
-------
General Integration Accuracy     IntAcc      ... 3.816
Radial Grid Type                 RadialGrid  ... OptM3 with GC (2021)
Angular Grid (max. ang.)         AngularGrid ... 1 (Lebedev-50)
Angular grid pruning method      GridPruning ... 4 (adaptive)
Weight generation scheme         WeightScheme... mBecke (2022)
Basis function cutoff            BFCut       ... 1.0000e-11
Integration weight cutoff        WCut        ... 1.0000e-14
Partially contracted basis set               ... on
Rotationally invariant grid construction     ... off
Angular grids for H and He will be reduced by one unit

Total number of grid points                  ...     8012
Total number of batches                      ...       71
Average number of points per batch           ...      112
Average number of grid points per atom       ...      534
UseSFitting                                  ... on

GRIDX 2
-------
General Integration Accuracy     IntAcc      ... 4.020
Radial Grid Type                 RadialGrid  ... OptM3 with GC (2021)
Angular Grid (max. ang.)         AngularGrid ... 2 (Lebedev-110)
Angular grid pruning method      GridPruning ... 4 (adaptive)
Weight generation scheme         WeightScheme... mBecke (2022)
Basis function cutoff            BFCut       ... 1.0000e-11
Integration weight cutoff        WCut        ... 1.0000e-14
Partially contracted basis set               ... on
Rotationally invariant grid construction     ... off
Angular grids for H and He will be reduced by one unit

Total number of grid points                  ...    16606
Total number of batches                      ...      139
Average number of points per batch           ...      119
Average number of grid points per atom       ...     1107
UseSFitting                                  ... on

GRIDX 3
-------
General Integration Accuracy     IntAcc      ... 4.338
Radial Grid Type                 RadialGrid  ... OptM3 with GC (2021)
Angular Grid (max. ang.)         AngularGrid ... 3 (Lebedev-194)
Angular grid pruning method      GridPruning ... 4 (adaptive)
Weight generation scheme         WeightScheme... mBecke (2022)
Basis function cutoff            BFCut       ... 1.0000e-11
Integration weight cutoff        WCut        ... 1.0000e-14
Partially contracted basis set               ... on
Rotationally invariant grid construction     ... off
Angular grids for H and He will be reduced by one unit

Total number of grid points                  ...    36391
Total number of batches                      ...      293
Average number of points per batch           ...      124
Average number of grid points per atom       ...     2426
UseSFitting                                  ... on
Initializing property integral containers    ... done (  0.0 sec)

SHARK setup successfully completed in   1.4 seconds

Maximum memory used throughout the entire STARTUP-calculation: 31.5 MB
-------------------------------------------------------------------------------
                                 ORCA GUESS
                   Start orbitals & Density for SCF / CASSCF
-------------------------------------------------------------------------------

------------
SCF SETTINGS
------------
Hamiltonian:
 Density Functional     Method          .... DFT(GTOs)
 Exchange Functional    Exchange        .... WB97X-V
 Correlation Functional Correlation     .... WB97X-V
 Gradients option       PostSCFGGA      .... off
 Hybrid DFT is turned on
   Fraction HF Exchange ScalHFX         ....  0.167000
   Scaling of DF-GGA-X  ScalDFX         ....  0.000000
   Scaling of DF-GGA-C  ScalDFC         ....  1.000000
   Scaling of DF-LDA-C  ScalLDAC        ....  1.000000
   Perturbative correction              ....  0.000000
 Long-range corrected/Screened/Range-Separated Hybrid DFT is turned on
   Amount of maximum screened exact exchange              ....  0.833000
   Range separation parameter mu (erf(mu*r12)/r12)        ....  0.300000
   NL short-range parameter             ....  6.000000
   NL long-range parameter              ....  0.010000
 RI-approximation to the Coulomb term is turned on
   Number of AuxJ basis functions       .... 355
   RIJ-COSX (HFX calculated with COS-X)).... on


General Settings:
 Integral files         IntName         .... sp_gas
 Hartree-Fock type      HFTyp           .... RHF
 Total Charge           Charge          ....    0
 Multiplicity           Mult            ....    1
 Number of Electrons    NEL             ....   40
 Basis Dimension        Dim             ....  215
 Nuclear Repulsion      ENuc            ....    177.0111212444 Eh

Convergence Acceleration:
 AO-DIIS                CNVDIIS         .... on
   Start iteration      DIISMaxIt       ....    12
   Startup error        DIISStart       ....  0.200000
   # of expansion vecs  DIISMaxEq       ....     5
   Bias factor          DIISBfac        ....   1.050
   Max. coefficient     DIISMaxC        ....  10.000
 MO-DIIS                CNVKDIIS        .... off
 Trust-Rad. Augm. Hess. CNVTRAH         .... auto
   Auto Start mean grad. ratio tolernc. ....  1.125000
   Auto Start start iteration           ....     1
   Auto Start num. interpolation iter.  ....    10
   Max. Number of Micro iterations      ....    24
   Max. Number of Macro iterations      .... Maxiter - #DIIS iter
   Number of Davidson start vectors     ....     2
   Converg. threshold    (grad. norm)   ....   1.000e-04
   Grad. Scal. Fac. for Micro threshold ....   0.100
   Minimum threshold for Micro iter.    ....   1.000e-02
   NR start threshold (gradient norm)   ....   1.000e-04
   Initial trust radius                 ....   0.400
   Minimum AH scaling param. (alpha)    ....   1.000
   Maximum AH scaling param. (alpha)    .... 1000.000
   Quad. conv. algorithm                .... NR
   White noise on init. David. guess    .... on
   Maximum white noise                  ....   0.010
   Pseudo random numbers                .... off
   Inactive MOs                         .... canonical
   Orbital update algorithm             .... Taylor
   Preconditioner                       .... Diag
   Full preconditioner red. dimension   ....   250
 SOSCF                  CNVSOSCF        .... on
   Start iteration      SOSCFMaxIt      ....   150
   Startup grad/error   SOSCFStart      ....  0.003300
   Hessian update       SOSCFHessUp     .... L-BFGS
 Level Shifting         CNVShift        .... on
   Level shift para.    LevelShift      ....    0.2500
   Turn off err/grad.   ShiftErr        ....    0.0010
 Zerner damping         CNVZerner       .... off
 Static damping         CNVDamp         .... on
   Fraction old density DampFac         ....    0.7000
   Max. Damping (<1)    DampMax         ....    0.9800
   Min. Damping (>=0)   DampMin         ....    0.0000
   Turn off err/grad.   DampErr         ....    0.1000

SCF Procedure:
 Maximum # iterations   MaxIter         ....   125
 SCF integral mode      SCFMode         .... Direct
   Integral package                     .... SHARK and LIBINT hybrid scheme
 Reset frequency        DirectResetFreq ....    20
 Integral Threshold     Thresh          ....  3.000e-11 Eh
 Primitive CutOff       TCut            ....  1.000e-12 Eh

Convergence Tolerance:
 Convergence Check Mode ConvCheckMode   .... Total+1el-Energy
 Convergence forced     ConvForced      .... 0
 Energy Change          TolE            ....  1.000e-07 Eh
 1-El. energy change                    ....  1.000e-04 Eh
 Orbital Gradient       TolG            ....  1.000e-04
 Orbital Rotation angle TolX            ....  1.000e-04
 DIIS Error             TolErr          ....  1.000e-07

---------------------
INITIAL GUESS: MOREAD
---------------------
Guess MOs are being read from file: sp_gas.ges
Input Geometry matches current geometry (good)
Atom 0: N(Shells)= 11 and 9 - projection required
Input basis set needs projection
NBasis(read)= 145
NBasis(calc)= 215
Basis set overlap was calculated
Using GuessMode=FMatrix for the initial guess
C*T matrix was formed
Effective Fockian was calculated
Effective Fockian was diagonalized
Initial density was built
                      ------------------
                      INITIAL GUESS DONE (   0.0 sec)
                      ------------------
             **** ENERGY FILE WAS UPDATED (sp_gas.en.tmp) ****
Finished Guess after   0.2 sec
Maximum memory used throughout the entire GUESS-calculation: 17.3 MB

-------------------------------------------------------------------------------------------
                                      ORCA LEAN-SCF
                              memory conserving SCF solver
-------------------------------------------------------------------------------------------

----------------------------------------D-I-I-S--------------------------------------------
Iteration    Energy (Eh)           Delta-E    RMSDP     MaxDP     DIISErr   Damp  Time(sec)
-------------------------------------------------------------------------------------------
               ***  Starting incremental Fock matrix formation  ***
    1    -196.6887748283222663     0.00e+00  9.02e-04  3.31e-02  3.25e-02  0.700   8.3
    2    -196.6914526796349492    -2.68e-03  7.88e-04  2.74e-02  2.27e-02  0.700   4.4
                               ***Turning on AO-DIIS***
    3    -196.6934999422826422    -2.05e-03  6.60e-04  2.15e-02  1.59e-02  0.700   4.4
    4    -196.6950184688346326    -1.52e-03  1.66e-03  5.25e-02  1.11e-02  0.000   4.1
                              *** Initializing SOSCF ***
---------------------------------------S-O-S-C-F--------------------------------------
Iteration    Energy (Eh)           Delta-E    RMSDP     MaxDP     MaxGrad    Time(sec)
--------------------------------------------------------------------------------------
    5    -196.6989630953464143    -3.94e-03  8.86e-05  2.18e-03  9.36e-04     4.9
               *** Restarting incremental Fock matrix formation ***
    6    -196.6989656445264245    -2.55e-06  4.33e-05  1.13e-03  3.47e-04     8.0
    7    -196.6989690136227864    -3.37e-06  2.36e-05  6.40e-04  1.37e-04     6.5
    8    -196.6989694524195897    -4.39e-07  4.46e-06  9.90e-05  3.11e-05     6.3
    9    -196.6989695187824623    -6.64e-08  1.08e-06  2.42e-05  1.08e-05     5.8
                 **** Energy Check signals convergence ****

               *****************************************************
               *                     SUCCESS                       *
               *           SCF CONVERGED AFTER   9 CYCLES          *
               *****************************************************


------------------
NL GRID GENERATION
------------------

General Integration Accuracy     IntAcc      ... 4.004
Radial Grid Type                 RadialGrid  ... OptM3 with GC (2021)
Angular Grid (max. ang.)         AngularGrid ... 2 (Lebedev-110)
Angular grid pruning method      GridPruning ... 4 (adaptive)
Weight generation scheme         WeightScheme... mBecke (2022)
Basis function cutoff            BFCut       ... 1.0000e-10
Integration weight cutoff        WCut        ... 1.0000e-14
Partially contracted basis set               ... off
Rotationally invariant grid construction     ... off
Angular grids for H and He will be reduced by one unit

Total number of grid points                  ...    18355
Total number of batches                      ...      295
Average number of points per batch           ...       62
Average number of grid points per atom       ...     1224
Final grid set up in    0.1 sec

-------------------------------------------------------------------------------
                    post-SCF DFT-NL dispersion correction                      
-------------------------------------------------------------------------------

SCF Energy:     -196.698969519 
NL    Energy:      0.153521516 
SC+NL Energy:   -196.545448003 
NL done in  :              1.3 sec
-------------------------------------------------------------------------------
Recomputing exchange energy using gridx3       ... done (   14.344 sec)
Old exchange energy                            :    -10.093428844 Eh
New exchange energy                            :    -10.093442294 Eh
Exchange energy change after final integration :     -0.000013450 Eh
Total energy after final integration           :   -196.545461453 Eh
             **** ENERGY FILE WAS UPDATED (sp_gas.en.tmp) ****

----------------
TOTAL SCF ENERGY
----------------

Total Energy       :       -196.54546145284874 Eh           -5348.27391 eV

Components:
Nuclear Repulsion  :        177.01112124443381 Eh            4816.71749 eV
Electronic Energy  :       -373.71009076321627 Eh          -10169.16856 eV
One Electron Energy:       -613.05553447992645 Eh          -16682.08919 eV
Two Electron Energy:        239.34544371671018 Eh            6512.92063 eV

Virial components:
Potential Energy   :       -392.18227047027051 Eh          -10671.82212 eV
Kinetic Energy     :        195.63680901742180 Eh            5323.54822 eV
Virial Ratio       :          2.00464458830621

DFT components:
N(Alpha)           :       20.000006078504 electrons
N(Beta)            :       20.000006078504 electrons
N(Total)           :       40.000012157009 electrons
E(X)               :      -19.316286853573 Eh       
E(C)               :       -1.575903029225 Eh       
NL Energy, E(C,NL) :        0.153521515744 Eh       
E(XC)              :      -20.738668367055 Eh       

---------------
SCF CONVERGENCE
---------------

  Last Energy change         ...    6.6363e-08  Tolerance :   1.0000e-07
  Last MAX-Density change    ...    2.4222e-05  Tolerance :   1.0000e-05
  Last RMS-Density change    ...    1.0786e-06  Tolerance :   1.0000e-06
  Last DIIS Error            ...    9.3565e-04  Tolerance :   1.0000e-07
  Last Orbital Gradient      ...    1.0819e-05  Tolerance :   1.0000e-04
  Last Orbital Rotation      ...    1.5503e-05  Tolerance :   1.0000e-04


----------------
ORBITAL ENERGIES
----------------

  NO   OCC          E(Eh)            E(eV) 
   0   2.0000     -12.054589      -328.0220 
   1   2.0000     -12.047631      -327.8327 
   2   2.0000     -12.036375      -327.5264 
   3   2.0000     -12.035156      -327.4932 
   4   2.0000     -12.033811      -327.4567 
   5   2.0000      -1.328606       -36.1532 
   6   2.0000      -1.252031       -34.0695 
   7   2.0000      -1.177933       -32.0532 
   8   2.0000      -1.099160       -29.9097 
   9   2.0000      -0.996555       -27.1176 
  10   2.0000      -0.912789       -24.8383 
  11   2.0000      -0.896293       -24.3894 
  12   2.0000      -0.875931       -23.8353 
  13   2.0000      -0.833427       -22.6787 
  14   2.0000      -0.814297       -22.1582 
  15   2.0000      -0.808349       -21.9963 
  16   2.0000      -0.783151       -21.3106 
  17   2.0000      -0.770315       -20.9613 
  18   2.0000      -0.761305       -20.7161 
  19   2.0000      -0.646870       -17.6022 
  20   0.0000      -0.192189        -5.2297 
  21   0.0000      -0.025535        -0.6948 
  22   0.0000      -0.012783        -0.3479 
  23   0.0000      -0.006414        -0.1745 
  24   0.0000       0.000152         0.0041 
  25   0.0000       0.008360         0.2275 
  26   0.0000       0.031484         0.8567 
  27   0.0000       0.038310         1.0425 
  28   0.0000       0.054351         1.4790 
  29   0.0000       0.062447         1.6993 
  30   0.0000       0.071790         1.9535 
*Only the first 10 virtual orbitals were printed.

                    ********************************
                    * MULLIKEN POPULATION ANALYSIS *
                    ********************************

-----------------------
MULLIKEN ATOMIC CHARGES
-----------------------
   0 C :   -0.352214
   1 C :    0.074077
   2 C :   -0.385984
   3 C :   -0.160927
   4 C :   -0.279666
   5 H :    0.111184
   6 H :    0.110232
   7 H :    0.110622
   8 H :    0.073293
   9 H :    0.115082
  10 H :    0.114194
  11 H :    0.124165
  12 H :    0.105982
  13 H :    0.118401
  14 H :    0.121559
Sum of atomic charges:   -0.0000000

--------------------------------
MULLIKEN REDUCED ORBITAL CHARGES
--------------------------------
  0 C s       :     3.236238  s :     3.236238
      pz      :     1.029422  p :     3.055357
      px      :     1.018014
      py      :     1.007920
      dz2     :     0.022550  d :     0.057306
      dxz     :     0.004656
      dyz     :     0.004766
      dx2y2   :     0.019097
      dxy     :     0.006237
      f0      :     0.000698  f :     0.003313
      f+1     :     0.000362
      f-1     :     0.000531
      f+2     :     0.000335
      f-2     :     0.000181
      f+3     :     0.000695
      f-3     :     0.000511

  1 C s       :     3.054394  s :     3.054394
      pz      :     0.939429  p :     2.723147
      px      :     0.882874
      py      :     0.900844
      dz2     :     0.031638  d :     0.140742
      dxz     :     0.017859
      dyz     :     0.021400
      dx2y2   :     0.037220
      dxy     :     0.032625
      f0      :     0.000984  f :     0.007640
      f+1     :     0.000743
      f-1     :     0.000880
      f+2     :     0.001141
      f-2     :     0.000500
      f+3     :     0.001527
      f-3     :     0.001865

  2 C s       :     3.254747  s :     3.254747
      pz      :     1.051718  p :     3.068564
      px      :     1.063513
      py      :     0.953334
      dz2     :     0.012595  d :     0.059291
      dxz     :     0.003361
      dyz     :     0.016392
      dx2y2   :     0.013562
      dxy     :     0.013380
      f0      :     0.000802  f :     0.003382
      f+1     :     0.000131
      f-1     :     0.000443
      f+2     :     0.000301
      f-2     :     0.000166
      f+3     :     0.000901
      f-3     :     0.000638

  3 C s       :     3.217555  s :     3.217555
      pz      :     0.944296  p :     2.849159
      px      :     0.929219
      py      :     0.975643
      dz2     :     0.012026  d :     0.087243
      dxz     :     0.020401
      dyz     :     0.005878
      dx2y2   :     0.029524
      dxy     :     0.019413
      f0      :     0.000646  f :     0.006970
      f+1     :     0.001260
      f-1     :     0.000939
      f+2     :     0.000942
      f-2     :     0.000437
      f+3     :     0.001382
      f-3     :     0.001364

  4 C s       :     3.229742  s :     3.229742
      pz      :     1.011091  p :     2.994517
      px      :     0.997718
      py      :     0.985708
      dz2     :     0.006933  d :     0.050462
      dxz     :     0.006886
      dyz     :     0.005878
      dx2y2   :     0.024070
      dxy     :     0.006694
      f0      :     0.000516  f :     0.004945
      f+1     :     0.000982
      f-1     :     0.000928
      f+2     :     0.000499
      f-2     :     0.000287
      f+3     :     0.000846
      f-3     :     0.000888

  5 H s       :     0.868006  s :     0.868006
      pz      :     0.012445  p :     0.020810
      px      :     0.004131
      py      :     0.004233

  6 H s       :     0.868820  s :     0.868820
      pz      :     0.004556  p :     0.020948
      px      :     0.012168
      py      :     0.004224

  7 H s       :     0.868410  s :     0.868410
      pz      :     0.004391  p :     0.020968
      px      :     0.004612
      py      :     0.011966

  8 H s       :     0.905276  s :     0.905276
      pz      :     0.012770  p :     0.021431
      px      :     0.004295
      py      :     0.004366

  9 H s       :     0.864212  s :     0.864212
      pz      :     0.011809  p :     0.020705
      px      :     0.004238
      py      :     0.004658

 10 H s       :     0.864749  s :     0.864749
      pz      :     0.004622  p :     0.021058
      px      :     0.011966
      py      :     0.004471

 11 H s       :     0.854976  s :     0.854976
      pz      :     0.006389  p :     0.020859
      px      :     0.006456
      py      :     0.008014

 12 H s       :     0.872408  s :     0.872408
      pz      :     0.004513  p :     0.021610
      px      :     0.004682
      py      :     0.012416

 13 H s       :     0.859696  s :     0.859696
      pz      :     0.005093  p :     0.021903
      px      :     0.012557
      py      :     0.004252

 14 H s       :     0.856317  s :     0.856317
      pz      :     0.004992  p :     0.022124
      px      :     0.004140
      py      :     0.012992


------------------------
MULLIKEN OVERLAP CHARGES
------------------------
B(  0-C ,  1-C ) :   0.6547 B(  0-C ,  2-C ) :  -0.0709 B(  0-C ,  3-C ) :  -0.0947 
B(  0-C ,  5-H ) :   0.8020 B(  0-C ,  6-H ) :   0.8220 B(  0-C ,  7-H ) :   0.8258 
B(  0-C ,  8-H ) :  -0.1120 B(  1-C ,  2-C ) :   0.6481 B(  1-C ,  3-C ) :   0.6468 
B(  1-C ,  4-C ) :  -0.0901 B(  1-C ,  5-H ) :  -0.0549 B(  1-C ,  6-H ) :  -0.0846 
B(  1-C ,  7-H ) :  -0.0838 B(  1-C ,  8-H ) :   0.8629 B(  1-C ,  9-H ) :  -0.0584 
B(  1-C , 10-H ) :  -0.0738 B(  1-C , 11-H ) :  -0.0920 B(  1-C , 12-H ) :  -0.1030 
B(  2-C ,  3-C ) :  -0.1069 B(  2-C ,  8-H ) :  -0.0823 B(  2-C ,  9-H ) :   0.8195 
B(  2-C , 10-H ) :   0.8229 B(  2-C , 11-H ) :   0.8443 B(  3-C ,  4-C ) :   1.2830 
B(  3-C ,  8-H ) :  -0.1011 B(  3-C , 12-H ) :   0.8204 B(  3-C , 13-H ) :  -0.0753 
B(  3-C , 14-H ) :  -0.0815 B(  4-C , 12-H ) :  -0.0561 B(  4-C , 13-H ) :   0.8311 
B(  4-C , 14-H ) :   0.8382 B(  9-H , 11-H ) :  -0.0585 B( 13-H , 14-H ) :  -0.0580 



                     *******************************
                     * LOEWDIN POPULATION ANALYSIS *
                     *******************************

----------------------
LOEWDIN ATOMIC CHARGES
----------------------
   0 C :   -0.275026
   1 C :   -0.301227
   2 C :   -0.279366
   3 C :   -0.178313
   4 C :   -0.215817
   5 H :    0.120790
   6 H :    0.117434
   7 H :    0.117806
   8 H :    0.154263
   9 H :    0.120962
  10 H :    0.119659
  11 H :    0.120448
  12 H :    0.140122
  13 H :    0.118684
  14 H :    0.119582

-------------------------------
LOEWDIN REDUCED ORBITAL CHARGES
-------------------------------
  0 C s       :     2.827777  s :     2.827777
      pz      :     1.064341  p :     3.159525
      px      :     1.048281
      py      :     1.046903
      dz2     :     0.090331  d :     0.263466
      dxz     :     0.024181
      dyz     :     0.026236
      dx2y2   :     0.091466
      dxy     :     0.031253
      f0      :     0.002889  f :     0.024257
      f+1     :     0.002752
      f-1     :     0.003648
      f+2     :     0.004254
      f-2     :     0.003653
      f+3     :     0.003999
      f-3     :     0.003062

  1 C s       :     2.727022  s :     2.727022
      pz      :     0.986634  p :     2.994161
      px      :     1.000026
      py      :     1.007501
      dz2     :     0.121167  d :     0.526758
      dxz     :     0.068186
      dyz     :     0.077512
      dx2y2   :     0.133251
      dxy     :     0.126642
      f0      :     0.006002  f :     0.053286
      f+1     :     0.005186
      f-1     :     0.005750
      f+2     :     0.008825
      f-2     :     0.006558
      f+3     :     0.009140
      f-3     :     0.011825

  2 C s       :     2.822319  s :     2.822319
      pz      :     1.069451  p :     3.167667
      px      :     1.061309
      py      :     1.036907
      dz2     :     0.055591  d :     0.264638
      dxz     :     0.015359
      dyz     :     0.066240
      dx2y2   :     0.067595
      dxy     :     0.059853
      f0      :     0.003850  f :     0.024741
      f+1     :     0.001252
      f-1     :     0.002757
      f+2     :     0.003450
      f-2     :     0.004080
      f+3     :     0.005291
      f-3     :     0.004062

  3 C s       :     2.788785  s :     2.788785
      pz      :     0.896009  p :     2.947836
      px      :     1.029047
      py      :     1.022780
      dz2     :     0.042698  d :     0.400973
      dxz     :     0.080929
      dyz     :     0.026573
      dx2y2   :     0.146450
      dxy     :     0.104322
      f0      :     0.003290  f :     0.040720
      f+1     :     0.004456
      f-1     :     0.003336
      f+2     :     0.005795
      f-2     :     0.005025
      f+3     :     0.009317
      f-3     :     0.009501

  4 C s       :     2.849515  s :     2.849515
      pz      :     0.987971  p :     3.098928
      px      :     1.051094
      py      :     1.059863
      dz2     :     0.019198  d :     0.239892
      dxz     :     0.025266
      dyz     :     0.026274
      dx2y2   :     0.121262
      dxy     :     0.047892
      f0      :     0.002318  f :     0.027481
      f+1     :     0.003120
      f-1     :     0.003031
      f+2     :     0.002756
      f-2     :     0.004086
      f+3     :     0.006015
      f-3     :     0.006156

  5 H s       :     0.818983  s :     0.818983
      pz      :     0.034144  p :     0.060227
      px      :     0.012861
      py      :     0.013222

  6 H s       :     0.822406  s :     0.822406
      pz      :     0.014353  p :     0.060161
      px      :     0.032753
      py      :     0.013055

  7 H s       :     0.822063  s :     0.822063
      pz      :     0.013811  p :     0.060131
      px      :     0.014337
      py      :     0.031983

  8 H s       :     0.790426  s :     0.790426
      pz      :     0.029849  p :     0.055311
      px      :     0.012510
      py      :     0.012952

  9 H s       :     0.818787  s :     0.818787
      pz      :     0.033477  p :     0.060251
      px      :     0.013323
      py      :     0.013451

 10 H s       :     0.820229  s :     0.820229
      pz      :     0.014361  p :     0.060111
      px      :     0.032932
      py      :     0.012818

 11 H s       :     0.819202  s :     0.819202
      pz      :     0.019464  p :     0.060350
      px      :     0.019475
      py      :     0.021410

 12 H s       :     0.802433  s :     0.802433
      pz      :     0.012873  p :     0.057445
      px      :     0.013705
      py      :     0.030866

 13 H s       :     0.820250  s :     0.820250
      pz      :     0.014342  p :     0.061066
      px      :     0.032426
      py      :     0.014299

 14 H s       :     0.818603  s :     0.818603
      pz      :     0.014482  p :     0.061815
      px      :     0.013589
      py      :     0.033744


---------------------------------
LOEWDIN BOND ORDERS (THRESH 0.050000)
---------------------------------
B(  0-C ,  1-C ) :   1.1992 B(  0-C ,  2-C ) :   0.1455 B(  0-C ,  3-C ) :   0.1589 
B(  0-C ,  5-H ) :   0.9037 B(  0-C ,  6-H ) :   0.9047 B(  0-C ,  7-H ) :   0.9046 
B(  0-C ,  8-H ) :   0.0714 B(  1-C ,  2-C ) :   1.2172 B(  1-C ,  3-C ) :   1.1705 
B(  1-C ,  4-C ) :   0.2117 B(  1-C ,  5-H ) :   0.0744 B(  1-C ,  6-H ) :   0.0762 
B(  1-C ,  7-H ) :   0.0750 B(  1-C ,  8-H ) :   0.7844 B(  1-C ,  9-H ) :   0.0758 
B(  1-C , 10-H ) :   0.0802 B(  1-C , 11-H ) :   0.0763 B(  1-C , 12-H ) :   0.0763 
B(  2-C ,  3-C ) :   0.1364 B(  2-C ,  8-H ) :   0.0712 B(  2-C ,  9-H ) :   0.8994 
B(  2-C , 10-H ) :   0.8996 B(  2-C , 11-H ) :   0.9020 B(  3-C ,  4-C ) :   2.1751 
B(  3-C ,  8-H ) :   0.0821 B(  3-C , 12-H ) :   0.8255 B(  3-C , 13-H ) :   0.1221 
B(  3-C , 14-H ) :   0.1125 B(  4-C , 12-H ) :   0.1139 B(  4-C , 13-H ) :   0.8939 
B(  4-C , 14-H ) :   0.8872 

------------------------------------------
LOEWDIN REDUCED ORBITAL POPULATIONS PER MO
-------------------------------------------
THRESHOLD FOR PRINTING IS 0.1%%
                      0         1         2         3         4         5   
                 -12.05459 -12.04763 -12.03638 -12.03516 -12.03381  -1.32861
                   2.00000   2.00000   2.00000   2.00000   2.00000   2.00000
                  --------  --------  --------  --------  --------  --------
 0 C  s               0.1       0.0      98.6       0.5       0.3       6.9
 0 C  pz              0.0       0.0       0.0       0.0       0.0       0.8
 0 C  px              0.0       0.0       0.0       0.0       0.0       1.5
 0 C  py              0.0       0.0       0.0       0.0       0.0       1.5
 0 C  dxz             0.0       0.0       0.0       0.0       0.0       0.2
 0 C  dyz             0.0       0.0       0.0       0.0       0.0       0.2
 0 C  dxy             0.1       0.0       0.0       0.0       0.0       0.3
 1 C  s              98.2       0.8       0.1       0.0       0.1      21.2
 1 C  pz              0.0       0.0       0.0       0.0       0.0       0.8
 1 C  px              0.0       0.1       0.0       0.0       0.0       0.6
 1 C  dz2             0.0       0.0       0.0       0.0       0.0       0.3
 1 C  f+3             0.0       0.0       0.0       0.0       0.0       0.1
 2 C  s               0.1       0.0       0.4       0.5      98.6       7.1
 2 C  px              0.0       0.0       0.0       0.0       0.0       0.5
 2 C  py              0.1       0.0       0.0       0.0       0.0       3.3
 2 C  dz2             0.0       0.0       0.0       0.0       0.0       0.2
 2 C  dx2y2           0.1       0.0       0.0       0.0       0.0       0.3
 2 C  dxy             0.0       0.0       0.0       0.0       0.0       0.2
 3 C  s               0.9      97.1       0.0       1.1       0.0      18.7
 3 C  px              0.1       0.0       0.0       0.1       0.0       1.1
 3 C  py              0.0       0.0       0.0       0.1       0.0       1.4
 3 C  dz2             0.0       0.0       0.0       0.0       0.0       0.4
 3 C  dxz             0.0       0.0       0.0       0.1       0.0       0.2
 3 C  dx2y2           0.1       0.0       0.0       0.0       0.0       0.5
 3 C  dxy             0.0       0.0       0.0       0.2       0.0       0.0
 4 C  s               0.0       1.0       0.5      97.1       0.5       8.4
 4 C  pz              0.0       0.0       0.0       0.0       0.0       0.6
 4 C  px              0.0       0.1       0.0       0.0       0.0       2.6
 4 C  py              0.0       0.1       0.0       0.0       0.0       1.4
 4 C  dz2             0.0       0.0       0.0       0.0       0.0       0.1
 4 C  dxz             0.0       0.1       0.0       0.0       0.0       0.2
 4 C  dxy             0.0       0.2       0.0       0.0       0.0       0.4
 5 H  s               0.0       0.0       0.0       0.0       0.0       1.1
 5 H  pz              0.0       0.0       0.0       0.0       0.0       0.1
 6 H  s               0.0       0.0       0.0       0.0       0.0       1.1
 7 H  s               0.0       0.0       0.0       0.0       0.0       1.2
 7 H  py              0.0       0.0       0.0       0.0       0.0       0.1
 8 H  s               0.0       0.0       0.0       0.0       0.0       3.7
 8 H  pz              0.0       0.0       0.0       0.0       0.0       0.3
 9 H  s               0.0       0.0       0.0       0.0       0.0       1.2
10 H  s               0.0       0.0       0.0       0.0       0.0       1.2
11 H  s               0.0       0.0       0.0       0.0       0.0       1.2
12 H  s               0.0       0.0       0.0       0.0       0.0       2.7
12 H  py              0.0       0.0       0.0       0.0       0.0       0.2
13 H  s               0.0       0.0       0.0       0.0       0.0       1.2
14 H  s               0.0       0.0       0.0       0.0       0.0       1.3
14 H  py              0.0       0.0       0.0       0.0       0.0       0.1

                      6         7         8         9        10        11   
                  -1.25203  -1.17793  -1.09916  -0.99656  -0.91279  -0.89629
                   2.00000   2.00000   2.00000   2.00000   2.00000   2.00000
                  --------  --------  --------  --------  --------  --------
 0 C  s               7.4      18.0       7.8       0.7       0.1       0.0
 0 C  pz              0.3       0.0       1.2       2.3       5.4       0.1
 0 C  px              0.1       0.0       2.6       0.4       0.3       3.3
 0 C  py              0.6       0.6       0.7       2.0       0.2       3.5
 0 C  dxz             0.0       0.0       0.3       0.1       0.0       0.1
 0 C  dyz             0.1       0.0       0.1       0.3       0.2       0.1
 0 C  dx2y2           0.1       0.1       0.1       0.1       0.0       0.1
 0 C  dxy             0.1       0.0       0.3       0.1       0.1       0.0
 1 C  s               5.5       0.0       5.3       4.2       0.1       0.1
 1 C  pz              0.1       0.6       2.0       2.7       8.4       0.0
 1 C  px              6.7       0.2       8.8       2.6       8.2       6.9
 1 C  py              0.1      17.0       0.9       0.1       1.2       5.3
 1 C  dz2             0.0       0.1       0.0       0.5       0.1       0.0
 1 C  dxz             0.4       0.1       0.3       0.0       0.0       0.0
 1 C  dyz             0.0       0.8       0.0       0.0       0.0       0.0
 1 C  dx2y2           1.0       0.5       0.6       0.0       0.1       0.2
 1 C  dxy             0.0       1.2       0.5       0.3       0.3       0.3
 2 C  s               6.2      21.4       4.4       1.7       0.1       0.3
 2 C  pz              0.0       0.0       0.4       0.8       2.7       0.5
 2 C  px              0.1       0.0       0.7       0.3       5.6       0.2
 2 C  py              0.9       0.6       1.8       6.3       0.0      10.0
 2 C  dz2             0.0       0.0       0.0       0.1       0.0       0.1
 2 C  dyz             0.0       0.0       0.1       0.2       0.1       0.1
 2 C  dx2y2           0.3       0.1       0.1       0.3       0.0       0.2
 2 C  dxy             0.0       0.0       0.4       0.0       0.2       0.0
 3 C  s              10.8       0.2       3.2       6.1       0.1       0.3
 3 C  pz              1.2       0.0       2.7       0.0       0.6       2.1
 3 C  px             10.3       0.1      10.3       0.8       8.5       8.0
 3 C  py              2.0       0.8       2.3       6.2      11.4       8.9
 3 C  dxz             0.1       0.0       0.0       0.4       0.2       0.0
 3 C  dyz             0.2       0.0       0.1       0.0       0.0       0.0
 3 C  dx2y2           0.2       0.1       0.2       0.4       0.0       0.0
 3 C  dxy             0.8       0.3       0.7       0.3       0.0       0.1
 4 C  s              19.7       0.0       7.8       5.9       0.1       1.1
 4 C  pz              0.4       0.0       0.2       1.8       0.0       3.2
 4 C  px              1.4       0.0       1.1       3.9      10.1      10.9
 4 C  py              2.0       0.1       0.6       9.8       6.9       9.7
 4 C  dz2             0.1       0.0       0.0       0.0       0.0       0.1
 4 C  dyz             0.2       0.0       0.0       0.1       0.0       0.0
 4 C  dx2y2           0.0       0.0       0.1       0.1       0.1       0.0
 4 C  dxy             0.3       0.0       0.2       0.7       0.0       0.3
 5 H  s               1.5       4.9       3.6       1.3       2.1       0.0
 5 H  pz              0.2       0.5       0.3       0.1       0.1       0.0
 6 H  s               1.6       4.9       4.0       0.4       0.3       1.3
 6 H  px              0.2       0.4       0.3       0.0       0.0       0.1
 7 H  s               1.5       5.4       3.0       1.1       0.0       1.9
 7 H  py              0.1       0.5       0.2       0.0       0.0       0.1
 8 H  s               1.2       0.0       2.9       4.7       5.2       0.1
 8 H  pz              0.1       0.0       0.3       0.3       0.2       0.0
 8 H  px              0.0       0.0       0.1       0.0       0.0       0.1
 9 H  s               1.2       5.9       2.2       2.2       0.8       1.6
 9 H  pz              0.1       0.6       0.2       0.2       0.0       0.1
10 H  s               1.3       5.9       2.3       1.3       2.7       0.1
10 H  px              0.1       0.6       0.2       0.1       0.1       0.0
10 H  py              0.0       0.0       0.0       0.0       0.0       0.1
11 H  s               1.2       6.2       1.8       1.6       0.0       2.3
11 H  pz              0.0       0.2       0.1       0.1       0.0       0.1
11 H  px              0.0       0.2       0.1       0.1       0.0       0.0
11 H  py              0.1       0.3       0.0       0.0       0.0       0.0
12 H  s               1.8       0.1       1.6       8.2       7.0       2.9
12 H  px              0.0       0.0       0.2       0.0       0.0       0.3
12 H  py              0.2       0.0       0.1       0.5       0.3       0.0
13 H  s               3.4       0.0       3.4       4.9       5.6       5.5
13 H  px              0.4       0.0       0.3       0.2       0.2       0.1
13 H  py              0.0       0.0       0.0       0.2       0.0       0.3
14 H  s               3.0       0.0       3.2       8.5       2.9       5.8
14 H  px              0.0       0.0       0.0       0.2       0.0       0.3
14 H  py              0.3       0.0       0.2       0.4       0.1       0.1

                     12        13        14        15        16        17   
                  -0.87593  -0.83343  -0.81430  -0.80835  -0.78315  -0.77031
                   2.00000   2.00000   2.00000   2.00000   2.00000   2.00000
                  --------  --------  --------  --------  --------  --------
 0 C  s               0.2       0.1       0.0       0.0       0.3       0.0
 0 C  pz              1.1      16.3       0.1      12.9       0.4       5.5
 0 C  px              4.8       4.5      24.3       4.8       0.6       1.7
 0 C  py             14.8       0.0       6.3       0.4      18.5       2.8
 0 C  dz2             0.0       0.2       0.1       0.7       0.4       1.1
 0 C  dxz             0.0       0.2       0.1       0.0       0.0       0.1
 0 C  dx2y2           0.0       0.0       1.6       0.1       0.7       0.9
 0 C  dxy             0.4       0.0       0.0       0.0       0.2       0.0
 1 C  s               0.2       0.0       0.2       0.0       0.0       0.0
 1 C  pz             18.2       0.1       0.1       0.0       1.0       5.1
 1 C  px              2.0       1.7       0.4       0.0       2.5       4.2
 1 C  py              0.1      13.3       0.1       0.0       7.3       4.8
 1 C  dz2             0.0       0.0       0.1       0.1       0.0       1.6
 1 C  dxz             0.3       0.1       0.1       0.0       0.0       0.1
 1 C  dyz             0.0       0.1       0.2       1.3       0.7       0.3
 1 C  dx2y2           0.0       0.1       1.8       0.1       0.0       1.5
 1 C  dxy             0.4       0.2       0.4       1.1       1.3       0.1
 1 C  f-2             0.0       0.0       0.0       0.0       0.1       0.0
 1 C  f-3             0.0       0.1       0.1       0.1       0.1       0.0
 2 C  s               0.0       0.1       0.1       0.0       0.1       0.2
 2 C  pz             11.0       4.3       0.3      16.1       5.6       5.5
 2 C  px              1.6      11.9       2.3      16.4       8.1       2.9
 2 C  py              4.8       3.6       0.2       0.1      12.9       7.3
 2 C  dz2             0.0       0.0       0.0       0.9       0.1       0.3
 2 C  dxz             0.2       0.3       0.0       0.0       0.2       0.0
 2 C  dyz             0.0       0.0       0.0       0.2       1.1       0.2
 2 C  dx2y2           0.2       0.3       0.2       0.6       0.6       0.2
 2 C  dxy             0.0       0.0       0.0       0.1       1.5       0.1
 2 C  f-2             0.0       0.0       0.0       0.0       0.1       0.0
 3 C  s               0.0       0.1       0.6       0.0       0.0       0.1
 3 C  pz              1.5       0.9       1.7       0.0       1.0       0.9
 3 C  px              0.1       0.2       0.7       0.1       0.4       1.1
 3 C  py              3.2       1.3       3.0       0.0       0.2       6.1
 3 C  dz2             0.1       0.0       0.0       0.0       0.0       0.2
 3 C  dxz             0.5       0.0       0.1       0.0       0.0       0.7
 3 C  dyz             0.0       0.1       0.1       0.0       0.0       0.1
 3 C  dx2y2           0.2       0.0       1.8       0.1       0.0       2.0
 3 C  dxy             0.0       1.2       0.2       0.1       0.3       0.5
 3 C  f-3             0.0       0.2       0.0       0.0       0.1       0.0
 4 C  s               0.0       0.1       0.1       0.0       0.0       0.0
 4 C  pz              0.8       0.1       0.2       0.0       0.0       0.6
 4 C  px              3.5       8.4       1.2       0.9       0.7       1.6
 4 C  py              0.7       1.1      10.5       1.4       0.0       3.4
 4 C  dxz             0.0       0.1       0.0       0.0       0.0       0.2
 4 C  dyz             0.0       0.0       0.2       0.0       0.0       0.1
 4 C  dx2y2           0.0       0.3       1.0       0.2       0.2       1.7
 5 H  s               0.5       7.6       0.1       7.9       0.1       4.4
 5 H  pz              0.0       0.1       0.0       0.2       0.0       0.0
 5 H  px              0.0       0.1       0.3       0.0       0.0       0.0
 5 H  py              0.1       0.0       0.1       0.0       0.3       0.0
 6 H  s               2.4       0.7      14.8       4.6       0.1       0.4
 6 H  pz              0.0       0.3       0.1       0.1       0.0       0.1
 6 H  px              0.0       0.0       0.2       0.1       0.0       0.0
 6 H  py              0.2       0.0       0.0       0.0       0.3       0.0
 7 H  s               5.6       0.8       7.2       0.3       8.8       4.3
 7 H  pz              0.0       0.2       0.0       0.2       0.1       0.0
 7 H  px              0.2       0.0       0.1       0.1       0.1       0.0
 7 H  py              0.1       0.1       0.2       0.0       0.0       0.1
 8 H  s               5.8       0.1       0.0       0.0       0.0       5.2
 8 H  px              0.1       0.0       0.0       0.0       0.1       0.1
 8 H  py              0.0       0.2       0.0       0.0       0.1       0.0
 9 H  s               2.2       2.2       0.0      10.8       1.1       4.4
 9 H  pz              0.0       0.0       0.0       0.3       0.0       0.0
 9 H  px              0.0       0.2       0.0       0.1       0.1       0.1
 9 H  py              0.1       0.0       0.0       0.0       0.2       0.1
10 H  s               0.0       5.2       1.1      13.1       2.4       1.0
10 H  pz              0.1       0.1       0.0       0.1       0.1       0.1
10 H  px              0.0       0.1       0.0       0.3       0.0       0.0
10 H  py              0.1       0.0       0.0       0.0       0.2       0.1
11 H  s               6.4       1.3       1.2       0.0      17.0       0.3
11 H  pz              0.0       0.0       0.0       0.2       0.1       0.0
11 H  px              0.1       0.0       0.0       0.2       0.1       0.0
11 H  py              0.1       0.3       0.0       0.0       0.1       0.2
12 H  s               1.0       1.0       3.9       0.0       0.0       6.4
13 H  s               2.3       5.2       2.0       0.8       0.4       2.1
14 H  s               0.3       1.3       7.1       1.0       0.1       3.7
14 H  py              0.0       0.1       0.1       0.0       0.0       0.0

                     18        19        20        21        22        23   
                  -0.76130  -0.64687  -0.19219  -0.02553  -0.01278  -0.00641
                   2.00000   2.00000   0.00000   0.00000   0.00000   0.00000
                  --------  --------  --------  --------  --------  --------
 0 C  s               0.0       0.2       0.8       0.5       0.1       0.3
 0 C  pz              6.6       0.4       0.3       1.5       1.4       1.2
 0 C  px              2.9       0.8       0.6       1.6       0.4       6.2
 0 C  py              0.0       0.4       0.6       3.5       0.3       1.3
 0 C  dz2             1.9       0.0       0.0       0.0       2.1       0.0
 0 C  dxz             0.0       0.0       0.0       2.1       0.1       1.0
 0 C  dyz             0.0       0.0       0.0       1.4       0.3       1.8
 0 C  dx2y2           0.6       0.1       0.3       0.6       0.0       5.7
 0 C  dxy             0.1       0.0       0.1       2.0       1.2       0.9
 0 C  f+2             0.0       0.0       0.0       0.0       0.0       0.3
 0 C  f-2             0.0       0.0       0.0       0.2       0.0       0.1
 0 C  f+3             0.0       0.0       0.0       0.0       0.1       0.0
 1 C  s               0.1       0.0       0.0       4.4       9.2       2.8
 1 C  pz              8.5       1.6       0.1       0.7       2.5       0.3
 1 C  px              4.9       0.1       0.1       0.3       2.5      12.5
 1 C  py              0.0       0.1       0.0       4.7       2.8       1.0
 1 C  dz2             2.2       0.9       1.0       0.9       5.1       0.1
 1 C  dxz             0.1       1.8       3.7       0.1       0.3       0.9
 1 C  dyz             0.3       0.0       0.0       0.4       0.1       0.0
 1 C  dx2y2           0.5       0.1       0.1       2.4       0.0       9.7
 1 C  dxy             0.0       0.2       0.5       2.4       1.9       0.6
 1 C  f0              0.0       0.1       0.1       0.1       0.1       0.0
 1 C  f-1             0.0       0.0       0.0       0.0       0.0       0.2
 1 C  f+2             0.1       0.1       0.1       0.1       0.0       0.2
 1 C  f-2             0.0       0.1       0.2       0.1       0.0       0.1
 1 C  f+3             0.1       0.0       0.1       0.0       0.7       0.0
 1 C  f-3             0.0       0.0       0.0       0.0       0.4       0.0
 2 C  s               0.0       0.0       0.0       6.3       5.6       0.7
 2 C  pz              6.1       0.0       0.0       0.0       1.0       0.3
 2 C  px              2.3       0.0       0.0       0.1       0.2       5.0
 2 C  py              0.1       0.0       0.0       0.1       6.8       4.7
 2 C  dz2             0.9       0.1       0.0       0.0       3.4       0.4
 2 C  dxz             0.0       0.0       0.0       0.0       0.0       0.5
 2 C  dyz             0.9       0.1       0.0       0.0       0.0       0.1
 2 C  dx2y2           0.2       0.0       0.0       0.4       0.7       8.8
 2 C  dxy             0.3       0.0       0.0       0.0       3.1       0.2
 2 C  f-1             0.0       0.0       0.0       0.0       0.1       0.1
 2 C  f+2             0.1       0.0       0.0       0.0       0.0       0.1
 2 C  f+3             0.1       0.0       0.0       0.0       0.6       0.0
 2 C  f-3             0.0       0.0       0.0       0.0       0.1       0.2
 3 C  s               0.3       0.0       0.0       0.8       3.1       3.1
 3 C  pz              0.9      31.2      30.9       0.1       0.2       0.2
 3 C  px              7.5       2.0       2.0       1.5       6.1       1.8
 3 C  py              2.0       2.3       2.3       3.6       0.1       0.3
 3 C  dz2             0.0       1.1       1.8       0.2       1.5       0.4
 3 C  dxz             0.0       1.6       1.0       1.6       0.2       0.4
 3 C  dyz             0.1       0.4       1.8       0.1       0.1       0.0
 3 C  dx2y2           1.6       0.0       0.0       4.5       3.7       0.4
 3 C  dxy             0.0       0.3       0.6       1.5       4.0       0.1
 3 C  f+1             0.0       0.0       0.3       0.1       0.1       0.0
 3 C  f-1             0.0       0.1       0.3       0.0       0.0       0.0
 3 C  f-2             0.0       0.1       0.2       0.0       0.0       0.0
 3 C  f+3             0.0       0.0       0.0       0.1       0.1       0.0
 3 C  f-3             0.0       0.0       0.1       0.0       0.4       0.0
 4 C  s               0.0       0.0       0.0       3.3       0.4       0.2
 4 C  pz              0.5      40.9      32.1       0.1       0.0       0.2
 4 C  px              3.1       3.1       2.3       0.5       0.2       0.7
 4 C  py              2.3       3.0       2.3       0.5       1.7       0.7
 4 C  dz2             0.0       0.4       2.2       0.2       0.1       0.0
 4 C  dxz             0.1       0.4       2.0       0.3       0.2       0.5
 4 C  dyz             0.3       0.3       1.8       0.2       0.3       0.0
 4 C  dx2y2           2.3       0.0       0.0       3.5       3.2       0.7
 4 C  dxy             0.0       0.1       0.7       0.2       0.7       0.8
 4 C  f+1             0.0       0.1       0.3       0.0       0.0       0.0
 4 C  f-1             0.0       0.1       0.3       0.0       0.0       0.0
 4 C  f-2             0.0       0.1       0.2       0.0       0.0       0.0
 4 C  f-3             0.1       0.0       0.0       0.1       0.0       0.1
 5 H  s               5.6       0.2       0.1       0.9       1.8       0.0
 5 H  pz              0.0       0.0       0.0       0.1       0.4       0.0
 5 H  px              0.0       0.0       0.0       0.2       0.0       0.4
 5 H  py              0.0       0.0       0.0       0.4       0.0       0.0
 6 H  s               4.2       0.2       0.3       0.6       0.2       3.9
 6 H  pz              0.0       0.0       0.0       0.3       0.1       0.2
 6 H  px              0.1       0.0       0.1       0.0       0.1       0.7
 6 H  py              0.0       0.0       0.0       0.4       0.0       0.1
 7 H  s               0.0       0.0       0.1       2.7       0.2       1.8
 7 H  pz              0.1       0.0       0.0       0.2       0.1       0.1
 7 H  px              0.0       0.0       0.0       0.3       0.0       0.3
 7 H  py              0.0       0.0       0.0       0.4       0.0       0.8
 8 H  s               8.4       2.2       1.1       5.1       0.4       1.3
 8 H  pz              0.1       0.0       0.0       1.6       0.0       0.6
 8 H  px              0.0       0.0       0.1       0.1       0.2       0.4
 8 H  py              0.0       0.0       0.0       0.1       0.2       0.1
 9 H  s               5.1       0.1       0.0       3.1       0.6       0.0
 9 H  pz              0.0       0.0       0.0       1.0       0.0       0.0
 9 H  px              0.0       0.0       0.0       0.0       0.0       0.3
 9 H  py              0.0       0.0       0.0       0.0       0.3       0.3
10 H  s               3.2       0.0       0.0       3.5       3.6       3.5
10 H  pz              0.0       0.0       0.0       0.1       0.0       0.1
10 H  px              0.1       0.0       0.0       1.1       1.1       0.7
10 H  py              0.0       0.0       0.0       0.0       0.7       0.0
11 H  s               0.4       0.0       0.0       2.2       1.5       1.9
11 H  pz              0.0       0.0       0.0       0.2       0.0       0.0
11 H  px              0.1       0.0       0.0       0.3       0.1       0.1
11 H  py              0.0       0.0       0.0       0.2       0.8       1.3
12 H  s               3.4       0.0       0.0       5.3       0.8       0.3
12 H  pz              0.0       0.5       1.0       0.0       0.0       0.0
12 H  px              0.0       0.0       0.1       0.0       1.0       0.1
12 H  py              0.0       0.0       0.1       1.2       0.1       0.1
13 H  s               4.0       0.0       0.0       5.5       0.6       0.6
13 H  pz              0.0       0.6       1.0       0.1       0.0       0.1
13 H  px              0.0       0.0       0.1       1.5       0.1       0.3
13 H  py              0.0       0.0       0.1       0.0       0.2       0.0
14 H  s               2.9       0.0       0.0       0.8       3.9       0.2
14 H  pz              0.0       0.6       1.0       0.0       0.1       0.0
14 H  px              0.0       0.0       0.1       0.2       0.0       0.0
14 H  py              0.0       0.0       0.1       0.1       1.0       0.0

                     24        25        26        27        28        29   
                   0.00015   0.00836   0.03148   0.03831   0.05435   0.06245
                   0.00000   0.00000   0.00000   0.00000   0.00000   0.00000
                  --------  --------  --------  --------  --------  --------
 0 C  s              14.9       0.0       4.1       0.8       0.2       0.1
 0 C  pz              1.1       1.8       4.7       0.5       0.6       4.6
 0 C  px              2.2       0.4       0.2       0.8       4.7       3.8
 0 C  py              1.2       2.2       0.6       2.2       5.3       1.8
 0 C  dz2             0.3       0.5       2.6       0.4       0.1       2.5
 0 C  dxz             0.6       0.2       0.3       0.9       1.1       0.0
 0 C  dyz             0.1       0.0       0.3       0.7       2.9       1.0
 0 C  dx2y2           0.0       0.1       0.2       0.1       1.1       0.1
 0 C  dxy             0.6       0.0       0.1       0.8       1.5       5.2
 0 C  f0              0.2       0.0       0.3       0.0       0.0       0.0
 0 C  f+3             0.2       0.0       0.0       0.0       0.1       0.0
 0 C  f-3             0.1       0.0       0.0       0.0       0.0       0.0
 1 C  s               0.2       0.1       4.6       0.0       0.1       0.2
 1 C  pz              6.3       0.8       5.0       0.0       1.8       9.6
 1 C  px              0.8       0.3       0.1       0.1       5.7       0.7
 1 C  py              6.5       0.8       0.6       4.6       0.4       0.3
 1 C  dz2             0.3       0.9       2.6       0.2       0.1       1.0
 1 C  dxz             0.4       0.1       0.3       0.1       3.0       0.4
 1 C  dyz             5.3       0.9       0.0       1.9       0.0       0.5
 1 C  dx2y2           0.1       0.4       0.3       0.6       0.2       0.2
 1 C  dxy             3.6       0.3       0.2       0.1       0.1       0.3
 1 C  f0              0.1       0.0       0.4       0.0       0.0       0.0
 1 C  f+2             0.0       0.0       0.0       0.0       0.1       0.0
 1 C  f-2             0.3       0.0       0.0       0.0       0.0       0.0
 2 C  s               0.2       4.0       0.0       1.2       0.1       0.4
 2 C  pz              0.4       2.1       6.3       1.2       0.8       3.3
 2 C  px              0.0       0.2       0.6       2.5       6.4       1.5
 2 C  py              2.9       3.8       0.9       1.8       3.5       0.7
 2 C  dz2             0.1       1.7       0.0       0.9       1.1       1.0
 2 C  dxz             0.0       0.0       0.5       0.2       2.9       1.0
 2 C  dyz             3.8       0.2       2.1       0.5       0.8       0.5
 2 C  dx2y2           0.0       0.1       0.0       2.0       0.1       0.5
 2 C  dxy             2.1       0.7       0.7       0.7       0.7       2.1
 2 C  f0              0.0       0.2       0.0       0.1       0.0       0.1
 2 C  f-2             0.2       0.0       0.1       0.0       0.0       0.0
 3 C  s               0.3       3.7       1.7       0.2       2.4       0.4
 3 C  pz              1.5       0.8       1.3       0.4       1.2       0.3
 3 C  px              0.2       0.1       0.2       0.7       0.1       0.8
 3 C  py              0.0       4.7       2.2       0.9       0.8       0.1
 3 C  dz2             0.0       1.5       1.5       0.1       0.3       0.0
 3 C  dxz             0.0       0.1       0.4       0.0       2.4       1.1
 3 C  dyz             1.0       1.4       0.1       0.1       0.0       0.4
 3 C  dx2y2           0.8       1.6       0.0       0.1       0.3       0.7
 3 C  dxy             1.2       0.0       0.1       0.5       0.1       0.9
 3 C  f+3             0.0       0.4       0.2       0.0       0.0       0.0
 3 C  f-3             0.0       0.1       0.0       0.2       0.1       0.0
 4 C  s               0.3       3.5       0.1       8.5       0.1       0.1
 4 C  pz              0.1       0.4       1.2       0.3       0.5       0.7
 4 C  px              0.4       1.2       0.7       7.9       0.2       0.4
 4 C  py              0.7       4.3       0.5       1.0       2.0       0.2
[...]
 1 C  f0              0.9       4.8       0.0       0.4       3.4       0.0
 1 C  f+1             0.1       2.5       1.2       0.3       0.2       0.1
 1 C  f-1             0.8       0.0       0.0       0.1       1.8       0.0
 1 C  f+2             0.3       4.6       0.8       0.7       0.0       0.0
 1 C  f-2             0.3       0.7       4.9       0.6       0.4       0.4
 1 C  f+3             1.0       1.5       0.0       1.7      14.2       0.3
 1 C  f-3             0.3       0.9       1.3      13.1       0.0       4.4
 2 C  s               2.8       1.9       8.4       3.5       2.9       0.3
 2 C  px              0.2       0.0       0.3       0.2       0.4       0.2
 2 C  py              0.6       0.3       2.1       1.4       2.4       0.1
 2 C  dz2             0.1       0.0       0.4       1.0       0.9       0.1
 2 C  dyz             0.2       0.1       0.1       0.2       0.5       0.1
 2 C  dx2y2           0.3       0.7       1.6       0.7       3.4       0.3
 2 C  dxy             0.0       0.2       0.2       3.7       0.6       0.3
 2 C  f0              1.5       0.9       1.1       0.3       0.3       0.0
 2 C  f+1             0.0       0.0       0.0       0.0       0.0       0.1
 2 C  f-1             0.4       0.0       3.2       0.2       0.5       0.0
 2 C  f+2             0.3       0.7       0.1       0.3       0.4       0.1
 2 C  f-2             0.0       0.6       0.3       1.0       0.2       0.1
 2 C  f+3             1.2       0.2       1.5       6.4       0.0       0.3
 2 C  f-3             0.3       1.0       2.7       0.0       0.7       0.1
 3 C  s               7.1       0.2       0.2       0.8       2.8       7.4
 3 C  pz              2.1       0.1       0.4       0.1       0.3       0.7
 3 C  px              3.2       4.0       0.5       0.1       0.7       9.5
 3 C  py              1.9       1.1       0.0       1.2       2.2       0.5
 3 C  dz2             1.3       0.3       0.1       0.2       0.9       1.3
 3 C  dxz             0.4       0.4       0.0       0.1       1.7       0.6
 3 C  dyz             3.2       0.3       0.1       0.1       0.1       0.5
 3 C  dx2y2           2.8       9.9       0.7       0.2       6.1       0.1
 3 C  dxy             3.8       0.2       0.0       2.1       0.3       0.1
 3 C  f0              4.9       0.2       0.6       0.1       0.6       1.6
 3 C  f+1             0.0       3.7       0.0       0.2       0.1       1.6
 3 C  f-1             0.2       1.8       0.2       0.3       0.3       0.3
 3 C  f+2             0.0       0.1       0.3       2.3       0.8       1.9
 3 C  f-2             5.0       1.2       0.5       1.5       1.5       0.2
 3 C  f+3             3.2       2.7       0.1       0.0       1.2      14.7
 3 C  f-3             0.0       0.7       0.2      15.7       6.5       0.3
 4 C  s               4.1       1.2       0.1       0.7       1.0       1.5
 4 C  pz              0.5       0.1       0.0       0.4       0.1       0.2
 4 C  px              3.7       0.7       0.0       2.2       0.6       0.5
 4 C  py              2.9       0.1       0.1       0.8       0.4       1.3
 4 C  dz2             0.6       0.1       0.1       0.1       0.1       0.4
 4 C  dxz             1.6       0.3       0.0       0.4       0.0       0.7
 4 C  dyz             0.4       0.1       0.1       0.1       1.2       0.0
 4 C  dx2y2           1.5       1.3       0.0       2.9       3.1       2.5
 4 C  dxy             8.9       0.2       0.1       0.2       1.6       0.2
 4 C  f0              2.1       0.2       0.0       1.1       0.3       0.9
 4 C  f+1             0.7       0.3       0.0       0.4       0.3       0.6
 4 C  f-1             1.7       0.1       0.1       0.2       0.0       0.2
 4 C  f+2             0.8       0.0       0.1       0.4       0.5       0.2
 4 C  f-2             0.0       0.0       0.1       0.1       0.1       0.6
 4 C  f+3             3.4       0.3       0.2       2.4       0.9       1.6
 4 C  f-3             0.0       4.0       0.0       0.0       1.5       8.2
 5 H  s               0.1       0.5       0.3       0.0       0.0       0.0
 5 H  pz              0.0       0.1       0.0       0.0       0.1       0.0
 6 H  s               0.3       1.1       0.3       0.1       0.2       0.2
 7 H  s               0.1       0.1       1.4       0.6       0.2       0.0
 8 H  s               1.3       2.5       0.0       0.0       0.4       0.0
 8 H  pz              0.6       0.6       0.0       0.0       0.0       0.2
 9 H  s               0.5       0.1       0.4       0.0       0.1       0.0
10 H  s               0.2       0.0       0.1       1.6       0.2       0.3
10 H  px              0.0       0.0       0.0       0.1       0.2       0.0
11 H  s               0.3       0.6       1.2       0.1       0.3       0.0
11 H  py              0.0       0.0       0.2       0.0       0.0       0.0
12 H  s               0.5       3.6       0.0       2.1       0.1       1.7
12 H  pz              0.0       0.1       0.0       0.0       0.0       0.0
12 H  px              0.0       0.0       0.0       0.5       0.0       0.0
12 H  py              0.4       0.9       0.0       0.3       0.1       0.3
13 H  s               0.8       1.1       0.1       0.5       0.3       3.5
13 H  px              0.0       0.4       0.0       0.0       0.3       0.6
13 H  py              0.2       0.0       0.0       0.0       0.0       0.1
14 H  s               1.5       0.1       0.1       0.9       0.1       2.2
14 H  px              0.0       0.2       0.0       0.0       0.1       0.1
14 H  py              0.5       0.0       0.0       0.4       0.2       0.1

                    210       211       212       213       214   
                  20.54108  20.75264  20.79862  21.03079  21.11675
                   0.00000   0.00000   0.00000   0.00000   0.00000
                  --------  --------  --------  --------  --------
 0 C  s               0.9      79.9      16.4       1.0       0.2
 1 C  s               0.1       1.0       0.0      93.1       4.4
 1 C  py              0.0       0.0       0.2       0.0       0.0
 2 C  s               0.1      16.8      80.8       0.1       0.5
 3 C  s              37.0       0.1       0.1       2.5      59.1
 3 C  px              0.1       0.0       0.0       0.3       0.1
 3 C  py              0.1       0.0       0.0       0.0       0.0
 3 C  dx2y2           0.0       0.0       0.0       0.1       0.0
 4 C  s              60.4       0.6       1.1       1.7      34.3
 5 H  s               0.0       0.2       0.0       0.0       0.0
 6 H  s               0.0       0.2       0.0       0.0       0.0
 7 H  s               0.0       0.2       0.0       0.0       0.0
 8 H  s               0.0       0.0       0.0       0.3       0.0
 8 H  pz              0.0       0.0       0.0       0.1       0.0
 9 H  s               0.0       0.0       0.2       0.0       0.0
10 H  s               0.0       0.0       0.2       0.0       0.0
11 H  s               0.0       0.1       0.2       0.0       0.0
12 H  s               0.1       0.0       0.0       0.0       0.2
13 H  s               0.2       0.0       0.0       0.0       0.1
14 H  s               0.2       0.0       0.0       0.0       0.1


                      *****************************
                      * MAYER POPULATION ANALYSIS *
                      *****************************

  NA   - Mulliken gross atomic population
  ZA   - Total nuclear charge
  QA   - Mulliken gross atomic charge
  VA   - Mayer's total valence
  BVA  - Mayer's bonded valence
  FA   - Mayer's free valence

  ATOM       NA         ZA         QA         VA         BVA        FA
  0 C      6.3522     6.0000    -0.3522     3.9012     3.9012     0.0000
  1 C      5.9259     6.0000     0.0741     3.8179     3.8179    -0.0000
  2 C      6.3860     6.0000    -0.3860     3.9325     3.9325    -0.0000
  3 C      6.1609     6.0000    -0.1609     3.9029     3.9029     0.0000
  4 C      6.2797     6.0000    -0.2797     3.9565     3.9565     0.0000
  5 H      0.8888     1.0000     0.1112     0.9805     0.9805     0.0000
  6 H      0.8898     1.0000     0.1102     0.9758     0.9758    -0.0000
  7 H      0.8894     1.0000     0.1106     0.9766     0.9766     0.0000
  8 H      0.9267     1.0000     0.0733     0.9645     0.9645    -0.0000
  9 H      0.8849     1.0000     0.1151     0.9762     0.9762    -0.0000
 10 H      0.8858     1.0000     0.1142     0.9765     0.9765    -0.0000
 11 H      0.8758     1.0000     0.1242     0.9700     0.9700    -0.0000
 12 H      0.8940     1.0000     0.1060     0.9755     0.9755     0.0000
 13 H      0.8816     1.0000     0.1184     0.9770     0.9770    -0.0000
 14 H      0.8784     1.0000     0.1216     0.9731     0.9731     0.0000

  Mayer bond orders larger than 0.100000
B(  0-C ,  1-C ) :   0.9595 B(  0-C ,  5-H ) :   0.9751 B(  0-C ,  6-H ) :   0.9797 
B(  0-C ,  7-H ) :   0.9816 B(  1-C ,  2-C ) :   0.9705 B(  1-C ,  3-C ) :   0.9694 
B(  1-C ,  8-H ) :   0.9592 B(  2-C ,  9-H ) :   0.9756 B(  2-C , 10-H ) :   0.9808 
B(  2-C , 11-H ) :   0.9827 B(  3-C ,  4-C ) :   1.9651 B(  3-C , 12-H ) :   0.9639 
B(  4-C , 13-H ) :   0.9710 B(  4-C , 14-H ) :   0.9670 

-------
TIMINGS
-------

Total SCF time: 0 days 0 hours 1 min 8 sec 

Total time                  ....      68.761 sec
Sum of individual times     ....      66.842 sec  ( 97.2%)

SCF preparation             ....       0.196 sec  (  0.3%)
Fock matrix formation       ....      65.664 sec  ( 95.5%)
  Startup                   ....       0.058 sec  (  0.1% of F)
  Split-RI-J                ....       2.346 sec  (  3.6% of F)
  Chain of spheres X        ....      54.281 sec  ( 82.7% of F)
  XC integration            ....       9.760 sec  ( 14.9% of F)
    XC Preparation          ....       0.000 sec  (  0.0% of XC)
    Basis function eval.    ....       2.275 sec  ( 23.3% of XC)
    Density eval.           ....       1.929 sec  ( 19.8% of XC)
    XC-Functional eval.     ....       2.076 sec  ( 21.3% of XC)
    XC-Potential eval.      ....       2.736 sec  ( 28.0% of XC)
Diagonalization             ....       0.000 sec  (  0.0%)
Density matrix formation    ....       0.194 sec  (  0.3%)
Total Energy calculation    ....       0.045 sec  (  0.1%)
Population analysis         ....       0.115 sec  (  0.2%)
Orbital Transformation      ....       0.059 sec  (  0.1%)
Orbital Orthonormalization  ....       0.000 sec  (  0.0%)
DIIS solution               ....       0.246 sec  (  0.4%)
  MO trafo                  ....       0.000 sec  (  0.0 % of DIIS)
  Orb grad                  ....       0.000 sec  (  0.0 % of DIIS)
  Energy W gradient         ....       0.000 sec  (  0.0 % of DIIS)
  DIIS error                ....       0.006 sec  (  2.3 % of DIIS)
  DIIS work                 ....       0.199 sec  ( 80.7 % of DIIS)
  Form Q                    ....       0.000 sec  (  0.0 % of DIIS)
  Form QpQm                 ....       0.000 sec  (  0.0 % of DIIS)
  Exp/Cayley                ....       0.000 sec  (  0.0 % of DIIS)
  Orb update                ....       0.000 sec  (  0.0 % of DIIS)
  Wake-sleep                ....       0.013 sec  (  5.1 % of DIIS)
SOSCF solution              ....       0.189 sec  (  0.3%)
  MO trafo                  ....       0.083 sec  ( 44.0 % of SOSCF)
  Orb grad                  ....       0.004 sec  (  2.2 % of SOSCF)
  Rot update                ....       0.054 sec  ( 28.9 % of SOSCF)
  Step                      ....       0.047 sec  ( 24.8 % of SOSCF)
Grid generation             ....       0.134 sec  (  0.2%)
Finished LeanSCF after  68.9 sec

Maximum memory used throughout the entire LEANSCF-calculation: 25.4 MB
------------------   -----------------
gCP correction             0.009714489
------------------   -----------------

-------------------------   --------------------
FINAL SINGLE POINT ENERGY      -196.535746964249
-------------------------   --------------------


------------------------------------------------------------------------------
                              ORCA PROPERTY CALCULATIONS
------------------------------------------------------------------------------

GBWName                                 ... sp_gas.gbw
Number of atoms                         ...     15
Number of basis functions               ...    215
Max core memory                         ...   1024 MB

Electric properties:
Dipole moment                           ... YES
Quadrupole moment                       ...  NO
Static polarizability (Dipole/Dipole)   ...  NO
Static polarizability (Dipole/Quad.)    ...  NO
Static polarizability (Quad./Quad.)     ...  NO
Static polarizability (Velocity)        ...  NO

Atomic electric properties:
Dipole moment                           ...  NO
Quadrupole moment                       ...  NO
Static polarizability                   ...  NO

Choice of electric origin               ... Center of mass
Position of electric origin             ...     0.006797    -0.005309    -0.029139

General magnetic properties:
Magnetizability                         ...  NO

EPR properties:
g-Tensor (aka g-matrix)                 ...  NO
Zero-Field splitting spin-orbit         ...  NO
Zero-field splitting spin-spin          ...  NO
Hyperfine couplings                     ...  NO (   0 nuclei)
Quadrupole couplings                    ...  NO (   0 nuclei)
Contact density                         ...  NO (   0 nuclei)

NMR properties:
Chemical shifts                         ...  NO (   0 nuclei)
Spin-rotation constants                 ...  NO (   0 nuclei)
Spin-spin couplings                     ...  NO (   0 nuclei,    0 pairs)

Choice of magnetic origin               ... GIAO
Position of magnetic origin             ...     0.000000     0.000000     0.000000

Properties with geometric perturbations:
SCF Hessian                             ...  NO
IR spectrum                             ...  NO
VCD spectrum                            ...  NO
X-ray spectroscopy properties:
SCF XES/XAS/RIXS spectra                ...  NO


-------------
DIPOLE MOMENT
-------------

Method             : SCF
Type of density    : Electron Density
Multiplicity       :   1
Irrep              :   0
Energy             :  -196.5454614528487411 Eh
Relativity type    : 
Basis              : AO
                                X                 Y                 Z
Electronic contribution:     -2.124191595      -0.503235713      -0.636940198
Nuclear contribution   :      2.273021848       0.450702150       0.563538516
                        -----------------------------------------
Total Dipole Moment    :      0.148830253      -0.052533563      -0.073401682
                        -----------------------------------------
Magnitude (a.u.)       :      0.174063283
Magnitude (Debye)      :      0.442433705



--------------------
Rotational spectrum 
--------------------
 
Rotational constants in cm-1:             0.243992             0.131048             0.096222 
Rotational constants in MHz :          7314.692676          3928.728633          2884.649287 

Dipole components along the rotational axes: 
x,y,z [a.u.] :     0.160008    -0.010382    -0.067732 
x,y,z [Debye]:     0.406709    -0.026388    -0.172161 

 

Dipole moment calculation done in   0.0 sec 

Maximum memory used throughout the entire PROP-calculation: 14.7 MB

--------------------------------
SUGGESTED CITATIONS FOR THIS RUN
--------------------------------

Below you find a list of papers that are relevant to this ORCA run
We neither can nor want to force you to cite these papers, but we appreciate if you do
You receive ORCA, which is the product of decades of hard work by many enthusiastic individuals, for free
The only thing we kindly ask in return is that you cite our papers,
We deeply appreciate it, if you show your appreciation for ORCA by not just citing the generic ORCA reference.

Please note that relegating all ORCA citations to the supporting information does *not* help us.
SI sections are not indexed - citations you put there will not count into any citation statistics
But we need these citations in order to attract the funding resources that allow us to do what we are doing

Therefore, if you are a happy ORCA user, please consider citing a few of the papers listed below in the main body of your paper

In addition to the list printed below, the program has created the file sp_gas.bibtex that contains the list in bibtex format
You can import this file easily into all common literature databanks and citation aid programs


List of essential papers. We consider these as the minimum necessary citations

  1. Neese,F.
     Software update: the ORCA program system, version 5.0
     WIRES Comput. Molec. Sci., 2022 12(1)e1606
     doi.org/10.1002/wcms.1606

List of papers to cite with high priority. The work reported in these papers was absolutely
necessary for this run to complete.
Our perspective: the developers of density functionals and basis sets usually get cited in chemistry papers
Good! But without the algorithms to do something with them, the functionals or basis sets would not do anything.
Hence, in our opinion, the algorithm design and method developments papers are equally worthy of getting cited

  1. Neese,F.
     An improvement of the resolution of the identity approximation for the formation of the Coulomb matrix
     J. Comp. Chem., 2003 24(14)1740-1747
     doi.org/10.1002/jcc.10318
  2. Neese,F.; Wennmohs,F.; Hansen,A.; Becker,U.
     Efficient, approximate and parallel Hartree-Fock and hybrid DFT calculations. A 'chain-of-spheres' algorithm for the Hartree-Fock exchange
     Chem. Phys., 2009 356(1-3)98-109
     doi.org/10.1016/j.chemphys.2008.10.036
  3. Helmich-Paris,B.; de Souza,B.; Neese,F.; Izsák,R.
     An improved chain of spheres for exchange algorithm
     J. Chem. Phys., 2021 155 104109
     doi.org/doi: 10.1063/5.0058766.
  4. Neese,F.
     The SHARK Integral Generation and Digestion System
     J. Comp. Chem., 2022  1-16
     doi.org/10.1002/jcc.26942

List of suggested additional citations. These are papers that are important in the 'surrounding' of 
of this run, or papers that preceded the highly important papers. If you like your results we are grateful for a citation.

  1. Izsak,R.; Neese,F.
     An overlap fitted chain of spheres exchange method
     J. Chem. Phys., 2011 135 144105
     doi.org/10.1063/1.3646921
  2. Izsak,R.; Hansen,A.; Neese,F.
     The resolution of identity and chain of spheres approximations for the LPNO-CCSD singles Fock term
     Molec. Phys., 2012 110 2413-2417
     doi.org/10.1080/00268976.2012.687466
  3. Neese,F.
     The ORCA program system
     WIRES Comput. Molec. Sci., 2012 2(1)73-78
     doi.org/10.1002/wcms.81
  4. Izsak,R.; Neese,F.; Klopper,W.
     Robust fitting techniques in the chain of spheres approximation to the Fock exchange: The role of the complementary space
     J. Chem. Phys., 2013 139 
     doi.org/10.1063/1.4819264
  5. Neese,F.
     Software update: the ORCA program system, version 4.0
     WIRES Comput. Molec. Sci., 2018 8(1)1-6
     doi.org/10.1002/wcms.1327
  6. Neese,F.; Wennmohs,F.; Becker,U.; Riplinger,C.
     The ORCA quantum chemistry program package
     J. Chem. Phys., 2020 152 Art. No. L224108
     doi.org/10.1063/5.0004608

List of optional additional citations

  1. Neese,F.
     Approximate second-order SCF convergence for spin unrestricted wavefunctions
     Chem. Phys. Lett., 2000 325(1-3)93-98
     doi.org/10.1016/s0009-2614(00)00662-x

Timings for individual modules:

Sum of individual times          ...       70.688 sec (=   1.178 min)
Startup calculation              ...        1.445 sec (=   0.024 min)   2.0 %
SCF iterations                   ...       69.147 sec (=   1.152 min)  97.8 %
Property calculations            ...        0.096 sec (=   0.002 min)   0.1 %
                             ****ORCA TERMINATED NORMALLY****
TOTAL RUN TIME: 0 days 0 hours 1 minutes 11 seconds 396 msec
